          ******************************************************
          *      GAMESS VERSION = 30 JUN 2019 R1 Patch 1       *
          *             FROM IOWA STATE UNIVERSITY             *
          * M.W.SCHMIDT, K.K.BALDRIDGE, J.A.BOATZ, S.T.ELBERT, *
          *   M.S.GORDON, J.H.JENSEN, S.KOSEKI, N.MATSUNAGA,   *
          *          K.A.NGUYEN, S.J.SU, T.L.WINDUS,           *
          *       TOGETHER WITH M.DUPUIS, J.A.MONTGOMERY       *
          *         J.COMPUT.CHEM.  14, 1347-1363(1993)        *
          *************** 64 BIT WINDOWS VERSION ***************

  SINCE 1993, STUDENTS AND POSTDOCS WORKING AT IOWA STATE UNIVERSITY
  AND ALSO IN THEIR VARIOUS JOBS AFTER LEAVING ISU HAVE MADE IMPORTANT
  CONTRIBUTIONS TO THE CODE:
     IVANA ADAMOVIC, CHRISTINE AIKENS, YURI ALEXEEV, POOJA ARORA,
     ANDREY ASADCHEV, ROB BELL, PRADIPTA BANDYOPADHYAY, JONATHAN BENTZ,
     COLLEEN BERTONI, BRETT BODE, KURT BRORSEN, CALEB CARLIN, GALINA CHABAN,
     WEI CHEN, CHEOL HO CHOI, PAUL DAY, ALBERT DEFUSCO, NUWAN DESILVA,
     TIM DUDLEY, DMITRI FEDOROV, ALEX FINDLATER, GRAHAM FLETCHER, 
     MARK FREITAG, KURT GLAESEMANN, ANASTASIA GUNINA,
     DAN KEMP, GRANT MERRILL, NORIYUKI MINEZAWA, JONATHAN MULLIN,
     TAKESHI NAGATA, SEAN NEDD, HEATHER NETZLOFF, BOSILJKA NJEGIC, RYAN OLSON,
     MIKE PAK, BUU PHAM,
     SPENCER PRUITT, LUKE ROSKOP, JIM SHOEMAKER, LYUDMILA SLIPCHENKO,
     TONY SMITH, SAROM SOK LEANG, JIE SONG, TETSUYA TAKETSUGU, SIMON WEBB,
     PENG XU, SOOHAENG YOO, FEDERICO ZAHARIEV

  ADDITIONAL CODE HAS BEEN PROVIDED BY COLLABORATORS IN OTHER GROUPS:
     IOWA STATE UNIVERSITY:
          JOE IVANIC, AARON WEST, LAIMUTIS BYTAUTAS, KLAUS RUEDENBERG
     UNIVERSITY OF TOKYO: KIMIHIKO HIRAO, TAKAHITO NAKAJIMA,
          TAKAO TSUNEDA, MUNEAKI KAMIYA, SUSUMU YANAGISAWA,
          KIYOSHI YAGI, MAHITO CHIBA, SEIKEN TOKURA, NAOAKI KAWAKAMI
     UNIVERSITY OF AARHUS: FRANK JENSEN
     UNIVERSITY OF IOWA: VISVALDAS KAIRYS, HUI LI
     NATIONAL INST. OF STANDARDS AND TECHNOLOGY: WALT STEVENS, DAVID GARMER
     UNIVERSITY OF PISA: BENEDETTA MENNUCCI, JACOPO TOMASI
     UNIVERSITY OF MEMPHIS: HENRY KURTZ, PRAKASHAN KORAMBATH
     UNIVERSITY OF ALBERTA: TOBY ZENG, MARIUSZ KLOBUKOWSKI
     UNIVERSITY OF NEW ENGLAND: MARK SPACKMAN
     MIE UNIVERSITY: HIROAKI UMEDA
     NAT. INST. OF ADVANCED INDUSTRIAL SCIENCE AND TECHNOLOGY: KAZUO KITAURA
     MICHIGAN STATE UNIVERSITY:
          KAROL KOWALSKI, MARTA WLOCH, JEFFREY GOUR, JESSE LUTZ,
          WEI LI, JUN SHEN, J. EMILIANO DEUSTUA, PIOTR PIECUCH
     UNIVERSITY OF MINNESOTA:
          YINAN SHU
     UNIVERSITY OF SILESIA: MONIKA MUSIAL, STANISLAW KUCHARSKI
     FACULTES UNIVERSITAIRES NOTRE-DAME DE LA PAIX:
          OLIVIER QUINET, BENOIT CHAMPAGNE
     UNIVERSITY OF CALIFORNIA - SANTA BARBARA: BERNARD KIRTMAN
     INSTITUTE FOR MOLECULAR SCIENCE:
          KAZUYA ISHIMURA, MICHIO KATOUDA, AND SHIGERU NAGASE
     UNIVERSITY OF NOTRE DAME: ANNA POMOGAEVA, DAN CHIPMAN
     KYUSHU UNIVERSITY:
          HARUYUKI NAKANO,
          FENG LONG GU, JACEK KORCHOWIEC, MARCIN MAKOWSKI, AND YURIKO AOKI,
          HIROTOSHI MORI AND EISAKU MIYOSHI
     PENNSYLVANIA STATE UNIVERSITY:
          TZVETELIN IORDANOV, CHET SWALINA, JONATHAN SKONE,
          SHARON HAMMES-SCHIFFER
     WASEDA UNIVERSITY:
          MASATO KOBAYASHI, TOMOKO AKAMA, TSUGUKI TOUMA,
          TAKESHI YOSHIKAWA, YASUHIRO IKABATA, JUNJI SEINO,
          YUYA NAKAJIMA, HIROMI NAKAI
     NANJING UNIVERSITY: SHUHUA LI
     UNIVERSITY OF NEBRASKA:
          PEIFENG SU, DEJUN SI, NANDUN THELLAMUREGE, YALI WANG, HUI LI
     UNIVERSITY OF ZURICH: ROBERTO PEVERATI, KIM BALDRIDGE
     N. COPERNICUS UNIVERSITY AND JACKSON STATE UNIVERSITY:
          MARIA BARYSZ
     UNIVERSITY OF COPENHAGEN: Jimmy Kromann, CASPER STEINMANN
     TOKYO INSTITUTE OF TECHNOLOGY: HIROYA NAKATA
     NAGOYA UNIVERSITY: YOSHIO NISHIMOTO, STEPHAN IRLE
     MOSCOW STATE UNIVERSITY: VLADIMIR MIRONOV
     A.N.NESMEYANOV INSTITUTE OF ORGANOELEMENT COMPOUNDS OF RUSSIAN ACADEMY OF SCIENCES:
          IGOR S. GERASIMOV

 EXECUTION OF GAMESS BEGUN Sun Nov 12 23:28:02 2023

            ECHO OF THE FIRST FEW INPUT CARDS -
 INPUT CARD>!   File created by the GAMESS Input Deck Generator Plugin for Avogadro         
 INPUT CARD> $BASIS GBASIS=STO NGAUSS=3 $END                                                
 INPUT CARD> $CONTRL SCFTYP=RHF RUNTYP=ENERGY DFTTYP=B3LYP $END                             
 INPUT CARD>                                                                                
 INPUT CARD> $DATA                                                                          
 INPUT CARD>Title                                                                           
 INPUT CARD>C1                                                                              
 INPUT CARD>Cd    48.0     0.00000     0.00000     0.00000                                  
 INPUT CARD>Te    52.0     1.62000     1.62000     1.62000                                  
 INPUT CARD>Cd    48.0     0.00000     3.24000     3.24000                                  
 INPUT CARD>Cd    48.0     3.24000     0.00000     3.24000                                  
 INPUT CARD>Cd    48.0     3.24000     3.24000     0.00000                                  
 INPUT CARD>Te    52.0     4.86000     4.86000     1.62000                                  
 INPUT CARD>Te    52.0     4.86000     1.62000     4.86000                                  
 INPUT CARD>Te    52.0     1.62000     4.86000     4.86000                                  
 INPUT CARD> $END                                                                           
    1000000 WORDS OF MEMORY AVAILABLE

     BASIS OPTIONS
     -------------
     GBASIS=STO          IGAUSS=       3      POLAR=NONE    
     NDFUNC=       0     NFFUNC=       0     DIFFSP=       F
     NPFUNC=       0      DIFFS=       F     BASNAM=        


     RUN TITLE
     ---------
 Title                                                                           

 THE POINT GROUP OF THE MOLECULE IS C1      
 THE ORDER OF THE PRINCIPAL AXIS IS     0

 ATOM      ATOMIC                      COORDINATES (BOHR)
           CHARGE         X                   Y                   Z
 CD         48.0     0.0000000000        0.0000000000        0.0000000000
 TE         52.0     3.0613561001        3.0613561001        3.0613561001
 CD         48.0     0.0000000000        6.1227122002        6.1227122002
 CD         48.0     6.1227122002        0.0000000000        6.1227122002
 CD         48.0     6.1227122002        6.1227122002        0.0000000000
 TE         52.0     9.1840683003        9.1840683003        3.0613561001
 TE         52.0     9.1840683003        3.0613561001        9.1840683003
 TE         52.0     3.0613561001        9.1840683003        9.1840683003

          INTERNUCLEAR DISTANCES (ANGS.)
          ------------------------------

                1 CD         2 TE         3 CD         4 CD         5 CD    

   1 CD      0.0000000    2.8059223 *  4.5820519    4.5820519    4.5820519  
   2 TE      2.8059223 *  0.0000000    2.8059223 *  2.8059223 *  2.8059223 *
   3 CD      4.5820519    2.8059223 *  0.0000000    4.5820519    4.5820519  
   4 CD      4.5820519    2.8059223 *  4.5820519    0.0000000    4.5820519  
   5 CD      4.5820519    2.8059223 *  4.5820519    4.5820519    0.0000000  
   6 TE      7.0614163    4.5820519    5.3729322    5.3729322    2.8059223 *
   7 TE      7.0614163    4.5820519    5.3729322    2.8059223 *  5.3729322  
   8 TE      7.0614163    4.5820519    2.8059223 *  5.3729322    5.3729322  

                6 TE         7 TE         8 TE    

   1 CD      7.0614163    7.0614163    7.0614163  
   2 TE      4.5820519    4.5820519    4.5820519  
   3 CD      5.3729322    5.3729322    2.8059223 *
   4 CD      5.3729322    2.8059223 *  5.3729322  
   5 CD      2.8059223 *  5.3729322    5.3729322  
   6 TE      0.0000000    4.5820519    4.5820519  
   7 TE      4.5820519    0.0000000    4.5820519  
   8 TE      4.5820519    4.5820519    0.0000000  

  * ... LESS THAN  3.000


     ATOMIC BASIS SET
     ----------------
 THE CONTRACTED PRIMITIVE FUNCTIONS HAVE BEEN UNNORMALIZED
 THE CONTRACTED BASIS FUNCTIONS ARE NOW NORMALIZED TO UNITY

  SHELL TYPE  PRIMITIVE        EXPONENT          CONTRACTION COEFFICIENT(S)

 CD        

      1   S       1          4950.2619055    0.154328967295
      1   S       2           901.6963856    0.535328142282
      1   S       3           244.0342313    0.444634542185

      2   L       4           433.4469385   -0.099967229187    0.155916274999
      2   L       5           100.7237469    0.399512826089    0.607683718598
      2   L       6            32.7584886    0.700115468880    0.391957393099

      3   L       7            55.6960593   -0.219620369005    0.010587604289
      3   L       8            15.5390592    0.225595433605    0.595167005266
      3   L       9             6.0818824    0.900398426019    0.462001011973

      4   D      10            12.7093050    0.168659606013
      4   D      11             3.9850214    0.584798481745
      4   D      12             1.5522640    0.405677952331

      5   L      13             5.9901404   -0.308844121382   -0.121546859998
      5   L      14             2.2107386    0.019606411652    0.571522760389
      5   L      15             0.9762855    1.131034441567    0.549894947089

      6   D      16             2.7877450    0.230855271810
      6   D      17             1.2609022    0.604240917727
      6   D      18             0.6194005    0.259576892612

      7   L      19             0.3584185   -0.384262501548   -0.348169412435
      7   L      20             0.1929869   -0.197256230789    0.629032745141
      7   L      21             0.0852456    1.375494636185    0.666283789268

 TE        

      8   S      22          5810.0615911    0.154328967295
      8   S      23          1058.3099716    0.535328142282
      8   S      24           286.4199797    0.444634542185

      9   L      25           512.7541920   -0.099967229187    0.155916274999
      9   L      26           119.1530471    0.399512826089    0.607683718598
      9   L      27            38.7522690    0.700115468880    0.391957393099

     10   L      28            69.8790771   -0.219620369005    0.010587604289
     10   L      29            19.4960851    0.225595433605    0.595167005266
     10   L      30             7.6306356    0.900398426019    0.462001011973

     11   D      31            75.6761827    0.168659606013
     11   D      32            23.7283791    0.584798481745
     11   D      33             9.2427884    0.405677952331

     12   L      34             7.0806438   -0.308844121382   -0.121546859998
     12   L      35             2.6132029    0.019606411652    0.571522760389
     12   L      36             1.1540179    1.131034441567    0.549894947089

     13   D      37             5.1073105    0.230855271810
     13   D      38             2.3100458    0.604240917727
     13   D      39             1.1347777    0.259576892612

     14   L      40             0.7012694   -0.384262501548   -0.348169412435
     14   L      41             0.3775915   -0.197256230789    0.629032745141
     14   L      42             0.1667886    1.375494636185    0.666283789268

 CD        

     15   S      43          4950.2619055    0.154328967295
     15   S      44           901.6963856    0.535328142282
     15   S      45           244.0342313    0.444634542185

     16   L      46           433.4469385   -0.099967229187    0.155916274999
     16   L      47           100.7237469    0.399512826089    0.607683718598
     16   L      48            32.7584886    0.700115468880    0.391957393099

     17   L      49            55.6960593   -0.219620369005    0.010587604289
     17   L      50            15.5390592    0.225595433605    0.595167005266
     17   L      51             6.0818824    0.900398426019    0.462001011973

     18   D      52            12.7093050    0.168659606013
     18   D      53             3.9850214    0.584798481745
     18   D      54             1.5522640    0.405677952331

     19   L      55             5.9901404   -0.308844121382   -0.121546859998
     19   L      56             2.2107386    0.019606411652    0.571522760389
     19   L      57             0.9762855    1.131034441567    0.549894947089

     20   D      58             2.7877450    0.230855271810
     20   D      59             1.2609022    0.604240917727
     20   D      60             0.6194005    0.259576892612

     21   L      61             0.3584185   -0.384262501548   -0.348169412435
     21   L      62             0.1929869   -0.197256230789    0.629032745141
     21   L      63             0.0852456    1.375494636185    0.666283789268

 CD        

     22   S      64          4950.2619055    0.154328967295
     22   S      65           901.6963856    0.535328142282
     22   S      66           244.0342313    0.444634542185

     23   L      67           433.4469385   -0.099967229187    0.155916274999
     23   L      68           100.7237469    0.399512826089    0.607683718598
     23   L      69            32.7584886    0.700115468880    0.391957393099

     24   L      70            55.6960593   -0.219620369005    0.010587604289
     24   L      71            15.5390592    0.225595433605    0.595167005266
     24   L      72             6.0818824    0.900398426019    0.462001011973

     25   D      73            12.7093050    0.168659606013
     25   D      74             3.9850214    0.584798481745
     25   D      75             1.5522640    0.405677952331

     26   L      76             5.9901404   -0.308844121382   -0.121546859998
     26   L      77             2.2107386    0.019606411652    0.571522760389
     26   L      78             0.9762855    1.131034441567    0.549894947089

     27   D      79             2.7877450    0.230855271810
     27   D      80             1.2609022    0.604240917727
     27   D      81             0.6194005    0.259576892612

     28   L      82             0.3584185   -0.384262501548   -0.348169412435
     28   L      83             0.1929869   -0.197256230789    0.629032745141
     28   L      84             0.0852456    1.375494636185    0.666283789268

 CD        

     29   S      85          4950.2619055    0.154328967295
     29   S      86           901.6963856    0.535328142282
     29   S      87           244.0342313    0.444634542185

     30   L      88           433.4469385   -0.099967229187    0.155916274999
     30   L      89           100.7237469    0.399512826089    0.607683718598
     30   L      90            32.7584886    0.700115468880    0.391957393099

     31   L      91            55.6960593   -0.219620369005    0.010587604289
     31   L      92            15.5390592    0.225595433605    0.595167005266
     31   L      93             6.0818824    0.900398426019    0.462001011973

     32   D      94            12.7093050    0.168659606013
     32   D      95             3.9850214    0.584798481745
     32   D      96             1.5522640    0.405677952331

     33   L      97             5.9901404   -0.308844121382   -0.121546859998
     33   L      98             2.2107386    0.019606411652    0.571522760389
     33   L      99             0.9762855    1.131034441567    0.549894947089

     34   D     100             2.7877450    0.230855271810
     34   D     101             1.2609022    0.604240917727
     34   D     102             0.6194005    0.259576892612

     35   L     103             0.3584185   -0.384262501548   -0.348169412435
     35   L     104             0.1929869   -0.197256230789    0.629032745141
     35   L     105             0.0852456    1.375494636185    0.666283789268

 TE        

     36   S     106          5810.0615911    0.154328967295
     36   S     107          1058.3099716    0.535328142282
     36   S     108           286.4199797    0.444634542185

     37   L     109           512.7541920   -0.099967229187    0.155916274999
     37   L     110           119.1530471    0.399512826089    0.607683718598
     37   L     111            38.7522690    0.700115468880    0.391957393099

     38   L     112            69.8790771   -0.219620369005    0.010587604289
     38   L     113            19.4960851    0.225595433605    0.595167005266
     38   L     114             7.6306356    0.900398426019    0.462001011973

     39   D     115            75.6761827    0.168659606013
     39   D     116            23.7283791    0.584798481745
     39   D     117             9.2427884    0.405677952331

     40   L     118             7.0806438   -0.308844121382   -0.121546859998
     40   L     119             2.6132029    0.019606411652    0.571522760389
     40   L     120             1.1540179    1.131034441567    0.549894947089

     41   D     121             5.1073105    0.230855271810
     41   D     122             2.3100458    0.604240917727
     41   D     123             1.1347777    0.259576892612

     42   L     124             0.7012694   -0.384262501548   -0.348169412435
     42   L     125             0.3775915   -0.197256230789    0.629032745141
     42   L     126             0.1667886    1.375494636185    0.666283789268

 TE        

     43   S     127          5810.0615911    0.154328967295
     43   S     128          1058.3099716    0.535328142282
     43   S     129           286.4199797    0.444634542185

     44   L     130           512.7541920   -0.099967229187    0.155916274999
     44   L     131           119.1530471    0.399512826089    0.607683718598
     44   L     132            38.7522690    0.700115468880    0.391957393099

     45   L     133            69.8790771   -0.219620369005    0.010587604289
     45   L     134            19.4960851    0.225595433605    0.595167005266
     45   L     135             7.6306356    0.900398426019    0.462001011973

     46   D     136            75.6761827    0.168659606013
     46   D     137            23.7283791    0.584798481745
     46   D     138             9.2427884    0.405677952331

     47   L     139             7.0806438   -0.308844121382   -0.121546859998
     47   L     140             2.6132029    0.019606411652    0.571522760389
     47   L     141             1.1540179    1.131034441567    0.549894947089

     48   D     142             5.1073105    0.230855271810
     48   D     143             2.3100458    0.604240917727
     48   D     144             1.1347777    0.259576892612

     49   L     145             0.7012694   -0.384262501548   -0.348169412435
     49   L     146             0.3775915   -0.197256230789    0.629032745141
     49   L     147             0.1667886    1.375494636185    0.666283789268

 TE        

     50   S     148          5810.0615911    0.154328967295
     50   S     149          1058.3099716    0.535328142282
     50   S     150           286.4199797    0.444634542185

     51   L     151           512.7541920   -0.099967229187    0.155916274999
     51   L     152           119.1530471    0.399512826089    0.607683718598
     51   L     153            38.7522690    0.700115468880    0.391957393099

     52   L     154            69.8790771   -0.219620369005    0.010587604289
     52   L     155            19.4960851    0.225595433605    0.595167005266
     52   L     156             7.6306356    0.900398426019    0.462001011973

     53   D     157            75.6761827    0.168659606013
     53   D     158            23.7283791    0.584798481745
     53   D     159             9.2427884    0.405677952331

     54   L     160             7.0806438   -0.308844121382   -0.121546859998
     54   L     161             2.6132029    0.019606411652    0.571522760389
     54   L     162             1.1540179    1.131034441567    0.549894947089

     55   D     163             5.1073105    0.230855271810
     55   D     164             2.3100458    0.604240917727
     55   D     165             1.1347777    0.259576892612

     56   L     166             0.7012694   -0.384262501548   -0.348169412435
     56   L     167             0.3775915   -0.197256230789    0.629032745141
     56   L     168             0.1667886    1.375494636185    0.666283789268

 TOTAL NUMBER OF BASIS SET SHELLS             =   56
 NUMBER OF CARTESIAN GAUSSIAN BASIS FUNCTIONS =  232
 NUMBER OF ELECTRONS                          =  400
 CHARGE OF MOLECULE                           =    0
 SPIN MULTIPLICITY                            =    1
 NUMBER OF OCCUPIED ORBITALS (ALPHA)          =  200
 NUMBER OF OCCUPIED ORBITALS (BETA )          =  200
 TOTAL NUMBER OF ATOMS                        =    8
 THE NUCLEAR REPULSION ENERGY IS     8801.4377335861

 SELECTED MURRAY-HANDY-LAMING RADIAL GRID

 LEGACY BECKE'S FUZZY CELL METHOD

 SELECTED ORIGINAL BECKE'S PARTITION FUNCTION

     LEBEDEV GRID-BASED DFT OPTIONS
     ------------------------------
     DFTTYP=B3LYP   
     NRAD  =      96     NLEB  =     302
     NRAD0 =      24     NLEB0 =     110
     SWOFF =    5.00E-03 (PURE SCF -> DFT)
     SWITCH=    3.00E-04 (COARSE -> TIGHT GRID)
     THRESH=    0.00E+00 GTHRE=    1.00E+00

 GRIMME'S EMPIRICAL DISPERSION CORRECTION= F

     $CONTRL OPTIONS
     ---------------
 SCFTYP=RHF          RUNTYP=ENERGY       EXETYP=RUN     
 MPLEVL=       0     CITYP =NONE         CCTYP =NONE         VBTYP =NONE    
 DFTTYP=B3LYP        TDDFT =NONE    
 MULT  =       1     ICHARG=       0     NZVAR =       0     COORD =UNIQUE  
 PP    =NONE         RELWFN=NONE         LOCAL =NONE         NUMGRD=       F
 ISPHER=      -1     NOSYM =       0     MAXIT =      30     UNITS =ANGS    
 PLTORB=       F     MOLPLT=       F     AIMPAC=       F     FRIEND=        
 NPRINT=       7     IREST =       0     GEOM  =INPUT   
 NORMF =       0     NORMP =       0     ITOL  =      20     ICUT  =       9
 INTTYP=BEST         GRDTYP=BEST         QMTTOL= 1.0E-06

     $SYSTEM OPTIONS
     ---------------
  REPLICATED MEMORY=     1000000 WORDS (ON EVERY NODE).
 DISTRIBUTED MEMDDI=           0 MILLION WORDS IN AGGREGATE,
 MEMDDI DISTRIBUTED OVER   1 PROCESSORS IS           0 WORDS/PROCESSOR.
 TOTAL MEMORY REQUESTED ON EACH PROCESSOR=     1000000 WORDS.
 TIMLIM=      525600.00 MINUTES, OR     365.0 DAYS.
 PARALL= F  BALTYP=  DLB     KDIAG=    0  COREFL= F
 MXSEQ2=     300 MXSEQ3=     150  mem10=         0

          ----------------
          PROPERTIES INPUT
          ----------------

     MOMENTS            FIELD           POTENTIAL          DENSITY
 IEMOM =       1   IEFLD =       0   IEPOT =       0   IEDEN =       0
 WHERE =COMASS     WHERE =NUCLEI     WHERE =NUCLEI     WHERE =NUCLEI  
 OUTPUT=BOTH       OUTPUT=BOTH       OUTPUT=BOTH       OUTPUT=BOTH    
 IEMINT=       0   IEFINT=       0                     IEDINT=       0
                                                       MORB  =       0
          EXTRAPOLATION IN EFFECT
          DIIS IN EFFECT
 ORBITAL PRINTING OPTION: NPREO=     1   232     2     1

     -------------------------------
     INTEGRAL TRANSFORMATION OPTIONS
     -------------------------------
     NWORD  =            0
     CUTOFF = 1.0E-09     MPTRAN =       0
     DIRTRF =       F     AOINTS =DUP     

          ----------------------
          INTEGRAL INPUT OPTIONS
          ----------------------
 NOPK  =       1 NORDER=       0 SCHWRZ=       T

     ------------------------------------------
     THE POINT GROUP IS C1 , NAXIS= 0, ORDER= 1
     ------------------------------------------

     DIMENSIONS OF THE SYMMETRY SUBSPACES ARE
 A   =  232

 ..... DONE SETTING UP THE RUN .....
 STEP CPU TIME =     0.15 TOTAL CPU TIME =          0.1 (      0.0 MIN)
 TOTAL WALL CLOCK TIME=          0.1 SECONDS, CPU UTILIZATION IS   100.00%

          ********************
          1 ELECTRON INTEGRALS
          ********************
 ...... END OF ONE-ELECTRON INTEGRALS ......
 STEP CPU TIME =     0.06 TOTAL CPU TIME =          0.2 (      0.0 MIN)
 TOTAL WALL CLOCK TIME=          0.2 SECONDS, CPU UTILIZATION IS   100.00%

          -------------
          GUESS OPTIONS
          -------------
          GUESS =HUCKEL            NORB  =       0          NORDER=       0
          MIX   =       F          PRTMO =       F          PUNMO =       F
          TOLZ  = 1.0E-08          TOLE  = 1.0E-05
          SYMDEN=       F          PURIFY=       F

 INITIAL GUESS ORBITALS GENERATED BY HUCKEL   ROUTINE.
 HUCKEL GUESS REQUIRES    583960 WORDS.

 SYMMETRIES FOR INITIAL GUESS ORBITALS FOLLOW.   BOTH SET(S).
   200 ORBITALS ARE OCCUPIED (  164 CORE ORBITALS).
   165=A      166=A      167=A      168=A      169=A      170=A      171=A   
   172=A      173=A      174=A      175=A      176=A      177=A      178=A   
   179=A      180=A      181=A      182=A      183=A      184=A      185=A   
   186=A      187=A      188=A      189=A      190=A      191=A      192=A   
   193=A      194=A      195=A      196=A      197=A      198=A      199=A   
   200=A      201=A      202=A      203=A      204=A      205=A      206=A   
   207=A      208=A      209=A      210=A   
 ...... END OF INITIAL ORBITAL SELECTION ......
 STEP CPU TIME =     0.13 TOTAL CPU TIME =          0.3 (      0.0 MIN)
 TOTAL WALL CLOCK TIME=          0.3 SECONDS, CPU UTILIZATION IS   100.00%

                    ----------------------
                    AO INTEGRAL TECHNOLOGY
                    ----------------------
     S,P,L SHELL ROTATED AXIS INTEGRALS, REPROGRAMMED BY
        KAZUYA ISHIMURA (IMS) AND JOSE SIERRA (SYNSTAR).
     S,P,D,L SHELL ROTATED AXIS INTEGRALS PROGRAMMED BY
        KAZUYA ISHIMURA (INSTITUTE FOR MOLECULAR SCIENCE).
     S,P,D,F,G SHELL TO TOTAL QUARTET ANGULAR MOMENTUM SUM 5,
        ERIC PROGRAM BY GRAHAM FLETCHER (ELORET AND NASA ADVANCED
        SUPERCOMPUTING DIVISION, AMES RESEARCH CENTER).
     S,P,D,F,G,L SHELL GENERAL RYS QUADRATURE PROGRAMMED BY
        MICHEL DUPUIS (PACIFIC NORTHWEST NATIONAL LABORATORY).

          --------------------
          2 ELECTRON INTEGRALS
          --------------------

 THE -PK- OPTION IS OFF, THE INTEGRALS ARE NOT IN SUPERMATRIX FORM.
 STORING   15000 INTEGRALS/RECORD ON DISK, USING 12 BYTES/INTEGRAL.
 TWO ELECTRON INTEGRAL EVALUATION REQUIRES   91992 WORDS OF MEMORY.
 SCHWARZ INEQUALITY OVERHEAD:     13780 INTEGRALS, T=        0.06
 II,JST,KST,LST =  1  1  1  1 NREC =         1 INTLOC =    1
 II,JST,KST,LST =  2  1  1  1 NREC =         1 INTLOC =    2
 II,JST,KST,LST =  3  1  1  1 NREC =         1 INTLOC =   34
 II,JST,KST,LST =  4  1  1  1 NREC =         1 INTLOC =  214
 II,JST,KST,LST =  5  1  1  1 NREC =         1 INTLOC = 1189
 II,JST,KST,LST =  6  1  1  1 NREC =         1 INTLOC = 2864
 II,JST,KST,LST =  7  1  1  1 NREC =         1 INTLOC = 7967
 II,JST,KST,LST =  8  1  1  1 NREC =         1 INTLOC =14065
 II,JST,KST,LST =  9  1  1  1 NREC =         2 INTLOC = 1141
 II,JST,KST,LST = 10  1  1  1 NREC =         2 INTLOC =14857
 II,JST,KST,LST = 11  1  1  1 NREC =         4 INTLOC =10012
 II,JST,KST,LST = 12  1  1  1 NREC =         8 INTLOC = 9313
 II,JST,KST,LST = 13  1  1  1 NREC =        13 INTLOC =11759
 II,JST,KST,LST = 14  1  1  1 NREC =        24 INTLOC = 6488
 II,JST,KST,LST = 15  1  1  1 NREC =        37 INTLOC =12318
 II,JST,KST,LST = 16  1  1  1 NREC =        38 INTLOC = 4006
 II,JST,KST,LST = 17  1  1  1 NREC =        40 INTLOC =10804
 II,JST,KST,LST = 18  1  1  1 NREC =        44 INTLOC =10315
 II,JST,KST,LST = 19  1  1  1 NREC =        54 INTLOC = 1568
 II,JST,KST,LST = 20  1  1  1 NREC =        63 INTLOC =11983
 II,JST,KST,LST = 21  1  1  1 NREC =        86 INTLOC = 7623
 II,JST,KST,LST = 22  1  1  1 NREC =       120 INTLOC = 7743
 II,JST,KST,LST = 23  1  1  1 NREC =       121 INTLOC = 7696
 II,JST,KST,LST = 24  1  1  1 NREC =       126 INTLOC = 9727
 II,JST,KST,LST = 25  1  1  1 NREC =       134 INTLOC =12845
 II,JST,KST,LST = 26  1  1  1 NREC =       153 INTLOC = 4836
 II,JST,KST,LST = 27  1  1  1 NREC =       171 INTLOC = 1218
 II,JST,KST,LST = 28  1  1  1 NREC =       209 INTLOC =12574
 II,JST,KST,LST = 29  1  1  1 NREC =       279 INTLOC = 1708
 II,JST,KST,LST = 30  1  1  1 NREC =       280 INTLOC =14221
 II,JST,KST,LST = 31  1  1  1 NREC =       290 INTLOC =  103
 II,JST,KST,LST = 32  1  1  1 NREC =       304 INTLOC = 6709
 II,JST,KST,LST = 33  1  1  1 NREC =       336 INTLOC =  982
 II,JST,KST,LST = 34  1  1  1 NREC =       365 INTLOC = 2545
 II,JST,KST,LST = 35  1  1  1 NREC =       425 INTLOC =12151
 II,JST,KST,LST = 36  1  1  1 NREC =       548 INTLOC = 5229
 II,JST,KST,LST = 37  1  1  1 NREC =       550 INTLOC = 5705
 II,JST,KST,LST = 38  1  1  1 NREC =       560 INTLOC =14824
 II,JST,KST,LST = 39  1  1  1 NREC =       580 INTLOC =  334
 II,JST,KST,LST = 40  1  1  1 NREC =       615 INTLOC = 4654
 II,JST,KST,LST = 41  1  1  1 NREC =       657 INTLOC = 3675
 II,JST,KST,LST = 42  1  1  1 NREC =       730 INTLOC =13898
 II,JST,KST,LST = 43  1  1  1 NREC =       842 INTLOC = 6967
 II,JST,KST,LST = 44  1  1  1 NREC =       845 INTLOC =  117
 II,JST,KST,LST = 45  1  1  1 NREC =       858 INTLOC = 1301
 II,JST,KST,LST = 46  1  1  1 NREC =       881 INTLOC =12510
 II,JST,KST,LST = 47  1  1  1 NREC =       925 INTLOC =  450
 II,JST,KST,LST = 48  1  1  1 NREC =       977 INTLOC = 4562
 II,JST,KST,LST = 49  1  1  1 NREC =      1067 INTLOC =12894
 II,JST,KST,LST = 50  1  1  1 NREC =      1216 INTLOC = 1203
 II,JST,KST,LST = 51  1  1  1 NREC =      1219 INTLOC = 2903
 II,JST,KST,LST = 52  1  1  1 NREC =      1234 INTLOC =14978
 II,JST,KST,LST = 53  1  1  1 NREC =      1264 INTLOC =  606
 II,JST,KST,LST = 54  1  1  1 NREC =      1316 INTLOC =  863
 II,JST,KST,LST = 55  1  1  1 NREC =      1380 INTLOC =  511
 II,JST,KST,LST = 56  1  1  1 NREC =      1489 INTLOC = 8388
 SCHWARZ INEQUALITY TEST SKIPPED     1109894 INTEGRAL BLOCKS.
 TOTAL NUMBER OF NONZERO TWO-ELECTRON INTEGRALS =            25200194
       1681 INTEGRAL RECORDS WERE STORED ON DISK FILE  8.
  ...... END OF TWO-ELECTRON INTEGRALS .....
 STEP CPU TIME =     5.73 TOTAL CPU TIME =          6.1 (      0.1 MIN)
 TOTAL WALL CLOCK TIME=          6.1 SECONDS, CPU UTILIZATION IS   100.00%

          --------------------------
             R-B3LYP SCF CALCULATION
          --------------------------

     NUCLEAR ENERGY =      8801.4377335861
     MAXIT =   30     NPUNCH=    2
     EXTRAP=T  DAMP=F  SHIFT=F  RSTRCT=F  DIIS=T  DEM=F  SOSCF=F
         DENSITY MATRIX CONVERGENCE THRESHOLD=  1.00E-05
     COARSE -> FINE DFT GRID SWITCH THRESHOLD=  3.00E-04 (SWITCH IN $DFT)
                   HF -> DFT SWITCH THRESHOLD=  5.00E-03 (SWOFF IN $DFT)
     MEMORY REQUIRED FOR RHF ITERS=    725456 WORDS.

 DFT CODE IS SWITCHING FROM THE FINE GRID NRAD= 96,  NLEB=  302
                      TO THE COARSE GRID NRAD0= 24, NLEB0=  110

     EXCHANGE FUNCTIONAL   =B88&HFX   
     CORRELATION FUNCTIONAL=LYP88&VWN5
     DFT THRESHOLD         =.172E-07
     GRID CHANGE THRESHOLD =.300E-03
 FOR AN EULER-MACLAURIN QUADRATURE USING  96 RADIAL POINTS:
 SMALLEST GAUSSIAN PRIMITIVE EXPONENT=        0.0852455737 OF TYPE -P-
 ON ATOM NUMBER   1 HAS RADIAL NORMALIZATION=  1.000000
  LARGEST GAUSSIAN PRIMITIVE EXPONENT=     5810.0615910906 OF TYPE -S-
 ON ATOM NUMBER   2 HAS RADIAL NORMALIZATION=  1.000000
 DFT IS SWITCHED OFF, PERFORMING PURE SCF UNTIL SWOFF THRESHOLD IS REACHED.

 ITER EX DEM     TOTAL ENERGY        E CHANGE  DENSITY CHANGE    DIIS ERROR
   1  0  0   -47394.3524160845-47394.3524160845  29.239613195  18.488355902
          * * *   INITIATING DIIS PROCEDURE   * * *
   2  1  0   -47389.4545993973     4.8978166873   6.846624395   0.399525362
   3  2  0   -47358.7005791947    30.7540202025  35.397024260   0.609377404
   4  3  0   -47373.0120447806   -14.3114655859   4.066732910   0.967158878
   5  4  0   -47391.6196923689   -18.6076475883  15.650780376   0.759507491
   6  5  0   -47399.2918915816    -7.6721992128   5.405801277   0.430344496
   7  6  0   -47404.5709286228    -5.2790370411   5.094860723   0.314748021
   8  7  0   -47372.0726012777    32.4983273450   4.711249932   0.632988986
   9  8  0   -47403.0986877765   -31.0260864987   1.723422394   0.191693272
  10  9  0   -47405.1701432303    -2.0714554538   1.897184770   0.151302595
  11 10  0   -47405.6380107288    -0.4678674985   1.413296193   0.084515905
  12 11  0   -47405.7050976825    -0.0670869538   0.844306661   0.038142078
  13 12  0   -47405.7790401044    -0.0739424219   0.597881642   0.038450680
  14 13  0   -47405.8090588069    -0.0300187025   0.749735778   0.051340933
  15 14  0   -47405.8444440996    -0.0353852926   0.432324120   0.015539678
  16 15  0   -47405.8626068990    -0.0181627994   0.449143168   0.014974628
  17 16  0   -47405.8754798408    -0.0128729418   0.133159502   0.003930716
  18 17  0   -47405.8771457978    -0.0016659570   0.124283093   0.003967873
  19 18  0   -47405.8785095985    -0.0013638007   0.123071267   0.002754792
  20 19  0   -47405.8796811442    -0.0011715457   0.135615624   0.004508473
  21 20  0   -47405.8811745445    -0.0014934003   0.120532948   0.002468440
  22 21  0   -47405.8823430018    -0.0011684573   0.037513776   0.000740755
  23 22  0   -47405.8827824591    -0.0004394573   0.045557168   0.000627422
  24 23  0   -47405.8832167679    -0.0004343087   0.057922999   0.000500985
  25 24  0   -47405.8836462030    -0.0004294352   0.016422085   0.000830683
  26 25  0   -47405.8838024522    -0.0001562492   0.021477472   0.000513968
  27 26  0   -47405.8840176341    -0.0002151819   0.013158445   0.000508304
  28 27  0   -47405.8841667695    -0.0001491354   0.012763437   0.000547152
  29 28  0   -47405.8843264152    -0.0001596457   0.014502646   0.000520126
  30 29  0   -47405.8844981263    -0.0001717111   0.008467796   0.000525393

 SCF IS UNCONVERGED, TOO MANY ITERATIONS
     TIME TO FORM FOCK OPERATORS=      14.5 SECONDS (       0.5 SEC/ITER)
     TIME TO SOLVE SCF EQUATIONS=       1.1 SECONDS (       0.0 SEC/ITER)

 FINAL R-B3LYP ENERGY IS        0.0000000000 AFTER  30 ITERATIONS

          ------------
          EIGENVECTORS
          ------------

                      1          2          3          4          5
                -1119.2673 -1119.1702 -1119.1249 -1119.1138  -962.9565
                     A          A          A          A          A   
    1  CD 1  S   -0.000000  -0.000000  -0.000000  -0.000000  -0.000004
    2  CD 1  S    0.000000   0.000000   0.000000   0.000000   0.000001
    3  CD 1  X    0.000000   0.000000  -0.000000   0.000000   0.000000
    4  CD 1  Y    0.000000   0.000000   0.000000  -0.000000   0.000000
    5  CD 1  Z    0.000000  -0.000000   0.000000   0.000000  -0.000000
    6  CD 1  S   -0.000000  -0.000000  -0.000000  -0.000000  -0.000004
    7  CD 1  X   -0.000000  -0.000000   0.000000  -0.000000  -0.000000
    8  CD 1  Y   -0.000000  -0.000000  -0.000000   0.000000  -0.000000
    9  CD 1  Z   -0.000000   0.000000  -0.000000  -0.000000   0.000000
   10  CD 1 XX    0.000001   0.000001   0.000001   0.000001   0.000008
   11  CD 1 YY    0.000001   0.000001   0.000001   0.000001   0.000008
   12  CD 1 ZZ    0.000001   0.000001   0.000001   0.000001   0.000009
   13  CD 1 XY    0.000002   0.000000  -0.000000  -0.000000   0.000000
   14  CD 1 XZ    0.000002  -0.000000  -0.000000   0.000000  -0.000000
   15  CD 1 YZ    0.000002  -0.000000   0.000000  -0.000000  -0.000000
   16  CD 1  S   -0.000005  -0.000003  -0.000003  -0.000003  -0.000034
   17  CD 1  X    0.000000   0.000000  -0.000000   0.000000   0.000001
   18  CD 1  Y    0.000000   0.000000   0.000000  -0.000000   0.000001
   19  CD 1  Z    0.000000  -0.000000   0.000000   0.000000  -0.000000
   20  CD 1 XX    0.000001   0.000001   0.000001   0.000001   0.000008
   21  CD 1 YY    0.000001   0.000001   0.000001   0.000001   0.000008
   22  CD 1 ZZ    0.000001   0.000001   0.000001   0.000001   0.000008
   23  CD 1 XY   -0.000003  -0.000000   0.000000   0.000000  -0.000000
   24  CD 1 XZ   -0.000003   0.000000   0.000000  -0.000000   0.000000
   25  CD 1 YZ   -0.000003   0.000000  -0.000000   0.000000   0.000000
   26  CD 1  S   -0.000013  -0.000000  -0.000000  -0.000000  -0.000007
   27  CD 1  X   -0.000010  -0.000000   0.000000  -0.000000  -0.000006
   28  CD 1  Y   -0.000010  -0.000000  -0.000000   0.000000  -0.000006
   29  CD 1  Z   -0.000010   0.000000  -0.000000  -0.000000   0.000001
   30  TE 2  S    0.996638  -0.000001  -0.000000  -0.000000  -0.000000
   31  TE 2  S    0.010102   0.000000   0.000000   0.000000   0.000000
   32  TE 2  X    0.000000  -0.000000  -0.000000  -0.000000   0.000000
   33  TE 2  Y    0.000000  -0.000000  -0.000000  -0.000000   0.000000
   34  TE 2  Z   -0.000000  -0.000000  -0.000000  -0.000000  -0.000000
   35  TE 2  S   -0.080333  -0.000002  -0.000002  -0.000002  -0.000000
   36  TE 2  X    0.000000   0.000000   0.000000   0.000000  -0.000000
   37  TE 2  Y   -0.000000   0.000000   0.000000   0.000000  -0.000000
   38  TE 2  Z    0.000000   0.000000   0.000000   0.000000   0.000000
   39  TE 2 XX    0.035783   0.000001   0.000001   0.000001  -0.000000
   40  TE 2 YY    0.035783   0.000001   0.000001   0.000001  -0.000000
   41  TE 2 ZZ    0.035783   0.000001   0.000001   0.000001  -0.000000
   42  TE 2 XY   -0.000000  -0.000000   0.000000   0.000000   0.000000
   43  TE 2 XZ   -0.000000   0.000000   0.000000  -0.000000  -0.000000
   44  TE 2 YZ   -0.000000   0.000000  -0.000000   0.000000  -0.000000
   45  TE 2  S    0.004995   0.000028   0.000028   0.000028   0.000032
   46  TE 2  X   -0.000000  -0.000000  -0.000000  -0.000000   0.000001
   47  TE 2  Y   -0.000000  -0.000000  -0.000000  -0.000000   0.000001
   48  TE 2  Z   -0.000000  -0.000000  -0.000000  -0.000000  -0.000000
   49  TE 2 XX   -0.002367  -0.000012  -0.000013  -0.000012  -0.000016
   50  TE 2 YY   -0.002367  -0.000012  -0.000012  -0.000013  -0.000016
   51  TE 2 ZZ   -0.002367  -0.000013  -0.000012  -0.000012  -0.000016
   52  TE 2 XY    0.000000   0.000000  -0.000000  -0.000000  -0.000001
   53  TE 2 XZ    0.000000  -0.000000  -0.000000   0.000000   0.000001
   54  TE 2 YZ    0.000000  -0.000000   0.000000  -0.000000   0.000001
   55  TE 2  S    0.000127   0.000002   0.000002   0.000002  -0.000024
   56  TE 2  X    0.000000   0.000002   0.000000   0.000002  -0.000018
   57  TE 2  Y    0.000000   0.000002   0.000002   0.000000  -0.000018
   58  TE 2  Z    0.000000   0.000000   0.000002   0.000002   0.000015
   59  CD 3  S   -0.000000   0.000000  -0.000000   0.000000  -0.000075
   60  CD 3  S    0.000000  -0.000000   0.000001  -0.000000   0.000000
   61  CD 3  X    0.000000  -0.000000   0.000000  -0.000000   0.000000
   62  CD 3  Y   -0.000000  -0.000000   0.000000   0.000000   0.000000
   63  CD 3  Z   -0.000000   0.000000   0.000000  -0.000000  -0.000000
   64  CD 3  S   -0.000001   0.000000  -0.000003   0.000000  -0.000006
   65  CD 3  X   -0.000000   0.000000  -0.000000   0.000000  -0.000000
   66  CD 3  Y    0.000000   0.000000  -0.000000  -0.000000  -0.000000
   67  CD 3  Z    0.000000  -0.000000  -0.000000   0.000000   0.000000
   68  CD 3 XX    0.000001  -0.000001   0.000006  -0.000001   0.000012
   69  CD 3 YY    0.000001  -0.000001   0.000006  -0.000001   0.000012
   70  CD 3 ZZ    0.000001  -0.000001   0.000006  -0.000001   0.000012
   71  CD 3 XY   -0.000002  -0.000000   0.000002  -0.000000   0.000000
   72  CD 3 XZ   -0.000002  -0.000000   0.000002  -0.000000  -0.000000
   73  CD 3 YZ    0.000002   0.000000   0.000002   0.000000   0.000000
   74  CD 3  S   -0.000007   0.000003  -0.000025   0.000003  -0.000047
   75  CD 3  X    0.000000  -0.000000   0.000001  -0.000000   0.000001
   76  CD 3  Y   -0.000000  -0.000000   0.000000   0.000000   0.000000
   77  CD 3  Z   -0.000000   0.000000   0.000000  -0.000000  -0.000001
   78  CD 3 XX    0.000002  -0.000001   0.000007  -0.000001   0.000012
   79  CD 3 YY    0.000002  -0.000001   0.000007  -0.000001   0.000012
   80  CD 3 ZZ    0.000002  -0.000001   0.000007  -0.000001   0.000012
   81  CD 3 XY    0.000003   0.000000  -0.000003   0.000000  -0.000000
   82  CD 3 XZ    0.000003   0.000000  -0.000003   0.000000   0.000000
   83  CD 3 YZ   -0.000003  -0.000000  -0.000003  -0.000000  -0.000000
   84  CD 3  S   -0.000014   0.000001  -0.000018   0.000001  -0.000011
   85  CD 3  X   -0.000011   0.000000  -0.000013   0.000000  -0.000008
   86  CD 3  Y    0.000009   0.000000  -0.000010  -0.000000  -0.000003
   87  CD 3  Z    0.000009  -0.000000  -0.000010   0.000000   0.000006
   88  CD 4  S   -0.000000   0.000000   0.000000  -0.000000  -0.000073
   89  CD 4  S    0.000000  -0.000000  -0.000000   0.000001   0.000000
   90  CD 4  X   -0.000000  -0.000000   0.000000   0.000000   0.000000
   91  CD 4  Y    0.000000  -0.000000  -0.000000   0.000000   0.000000
   92  CD 4  Z   -0.000000   0.000000  -0.000000   0.000000  -0.000000
   93  CD 4  S   -0.000001   0.000000   0.000000  -0.000003  -0.000006
   94  CD 4  X    0.000000   0.000000  -0.000000  -0.000000  -0.000000
   95  CD 4  Y   -0.000000   0.000000   0.000000  -0.000000  -0.000000
   96  CD 4  Z    0.000000  -0.000000   0.000000  -0.000000   0.000000
   97  CD 4 XX    0.000001  -0.000001  -0.000001   0.000006   0.000012
   98  CD 4 YY    0.000001  -0.000001  -0.000001   0.000006   0.000012
   99  CD 4 ZZ    0.000001  -0.000001  -0.000001   0.000006   0.000012
  100  CD 4 XY   -0.000002  -0.000000  -0.000000   0.000002   0.000000
  101  CD 4 XZ    0.000002   0.000000   0.000000   0.000002   0.000000
  102  CD 4 YZ   -0.000002  -0.000000  -0.000000   0.000002  -0.000000
  103  CD 4  S   -0.000007   0.000003   0.000003  -0.000025  -0.000047
  104  CD 4  X   -0.000000  -0.000000   0.000000   0.000000   0.000000
  105  CD 4  Y    0.000000  -0.000000  -0.000000   0.000001   0.000001
  106  CD 4  Z   -0.000000   0.000000  -0.000000   0.000000  -0.000001
  107  CD 4 XX    0.000002  -0.000001  -0.000001   0.000007   0.000012
  108  CD 4 YY    0.000002  -0.000001  -0.000001   0.000007   0.000012
  109  CD 4 ZZ    0.000002  -0.000001  -0.000001   0.000007   0.000012
  110  CD 4 XY    0.000003   0.000000   0.000000  -0.000003  -0.000000
  111  CD 4 XZ   -0.000003  -0.000000  -0.000000  -0.000003  -0.000000
  112  CD 4 YZ    0.000003   0.000000   0.000000  -0.000003   0.000000
  113  CD 4  S   -0.000014   0.000001   0.000001  -0.000018  -0.000011
  114  CD 4  X    0.000009   0.000000  -0.000000  -0.000010  -0.000003
  115  CD 4  Y   -0.000011   0.000000   0.000000  -0.000013  -0.000008
  116  CD 4  Z    0.000009  -0.000000   0.000000  -0.000010   0.000006
  117  CD 5  S   -0.000000  -0.000000   0.000000   0.000000   0.995367
  118  CD 5  S    0.000000   0.000001  -0.000000  -0.000000   0.010982
  119  CD 5  X   -0.000000   0.000000   0.000000  -0.000000  -0.000000
  120  CD 5  Y   -0.000000   0.000000  -0.000000   0.000000  -0.000000
  121  CD 5  Z    0.000000   0.000000  -0.000000  -0.000000  -0.000000
  122  CD 5  S   -0.000001  -0.000003   0.000000   0.000000   0.000002
  123  CD 5  X    0.000000  -0.000000  -0.000000   0.000000   0.000000
  124  CD 5  Y    0.000000  -0.000000   0.000000  -0.000000   0.000000
  125  CD 5  Z   -0.000000  -0.000000   0.000000   0.000000   0.000001
  126  CD 5 XX    0.000001   0.000006  -0.000001  -0.000001  -0.001599
  127  CD 5 YY    0.000001   0.000006  -0.000001  -0.000001  -0.001599
  128  CD 5 ZZ    0.000001   0.000006  -0.000001  -0.000001  -0.001599
  129  CD 5 XY    0.000002   0.000002   0.000000   0.000000  -0.000003
  130  CD 5 XZ   -0.000002   0.000002  -0.000000  -0.000000  -0.000000
  131  CD 5 YZ   -0.000002   0.000002  -0.000000  -0.000000  -0.000000
  132  CD 5  S   -0.000007  -0.000025   0.000003   0.000003   0.005583
  133  CD 5  X   -0.000000   0.000000   0.000000  -0.000000   0.000000
  134  CD 5  Y   -0.000000   0.000000  -0.000000   0.000000   0.000000
  135  CD 5  Z    0.000000   0.000001  -0.000000  -0.000000  -0.000003
  136  CD 5 XX    0.000002   0.000007  -0.000001  -0.000001  -0.001143
  137  CD 5 YY    0.000002   0.000007  -0.000001  -0.000001  -0.001143
  138  CD 5 ZZ    0.000002   0.000007  -0.000001  -0.000001  -0.001143
  139  CD 5 XY   -0.000003  -0.000003  -0.000000  -0.000000   0.000004
  140  CD 5 XZ    0.000003  -0.000003   0.000000   0.000000   0.000000
  141  CD 5 YZ    0.000003  -0.000003   0.000000   0.000000   0.000000
  142  CD 5  S   -0.000014  -0.000018   0.000001   0.000001   0.000193
  143  CD 5  X    0.000009  -0.000010  -0.000000   0.000000  -0.000001
  144  CD 5  Y    0.000009  -0.000010   0.000000  -0.000000  -0.000001
  145  CD 5  Z   -0.000011  -0.000013   0.000000   0.000000   0.000030
  146  TE 6  S    0.000001   0.996638   0.000000   0.000000  -0.000000
  147  TE 6  S    0.000000   0.010101  -0.000000  -0.000000  -0.000000
  148  TE 6  X    0.000000  -0.000000  -0.000000   0.000000  -0.000000
  149  TE 6  Y    0.000000  -0.000000   0.000000  -0.000000  -0.000000
  150  TE 6  Z   -0.000000  -0.000000   0.000000   0.000000  -0.000000
  151  TE 6  S   -0.000002  -0.080298   0.000001   0.000001   0.000013
  152  TE 6  X   -0.000000  -0.000000   0.000000  -0.000000   0.000000
  153  TE 6  Y   -0.000000  -0.000000  -0.000000   0.000000   0.000000
  154  TE 6  Z    0.000000  -0.000000  -0.000000  -0.000000   0.000000
  155  TE 6 XX    0.000001   0.035767  -0.000000  -0.000000  -0.000007
  156  TE 6 YY    0.000001   0.035767  -0.000000  -0.000000  -0.000007
  157  TE 6 ZZ    0.000001   0.035767  -0.000000  -0.000000  -0.000007
  158  TE 6 XY   -0.000000  -0.000000   0.000000   0.000000   0.000000
  159  TE 6 XZ   -0.000000  -0.000000   0.000000   0.000000   0.000000
  160  TE 6 YZ   -0.000000  -0.000000   0.000000   0.000000   0.000000
  161  TE 6  S    0.000029   0.004578  -0.000011  -0.000011  -0.000132
  162  TE 6  X    0.000000   0.000001  -0.000000   0.000000  -0.000001
  163  TE 6  Y    0.000000   0.000001   0.000000  -0.000000  -0.000001
  164  TE 6  Z   -0.000000   0.000001   0.000000   0.000000   0.000000
  165  TE 6 XX   -0.000013  -0.002179   0.000005   0.000005   0.000058
  166  TE 6 YY   -0.000013  -0.002179   0.000005   0.000005   0.000058
  167  TE 6 ZZ   -0.000013  -0.002179   0.000005   0.000005   0.000058
  168  TE 6 XY    0.000000   0.000000  -0.000000  -0.000000  -0.000001
  169  TE 6 XZ    0.000000   0.000000  -0.000000  -0.000000  -0.000001
  170  TE 6 YZ    0.000000   0.000000  -0.000000  -0.000000  -0.000001
  171  TE 6  S    0.000002   0.000095  -0.000000  -0.000000  -0.000038
  172  TE 6  X   -0.000002  -0.000007   0.000000   0.000000   0.000017
  173  TE 6  Y   -0.000002  -0.000007   0.000000   0.000000   0.000017
  174  TE 6  Z    0.000001  -0.000007  -0.000000  -0.000000   0.000013
  175  TE 7  S    0.000000  -0.000000  -0.000002   0.996638   0.000000
  176  TE 7  S    0.000000  -0.000000  -0.000000   0.010101   0.000000
  177  TE 7  X    0.000000   0.000000  -0.000000  -0.000000   0.000000
  178  TE 7  Y   -0.000000   0.000000   0.000000  -0.000000   0.000000
  179  TE 7  Z    0.000000  -0.000000   0.000000  -0.000000   0.000000
  180  TE 7  S   -0.000002   0.000001   0.000001  -0.080297  -0.000002
  181  TE 7  X   -0.000000  -0.000000   0.000000  -0.000000  -0.000000
  182  TE 7  Y    0.000000  -0.000000  -0.000000  -0.000000  -0.000000
  183  TE 7  Z   -0.000000   0.000000  -0.000000  -0.000000  -0.000000
  184  TE 7 XX    0.000001  -0.000000  -0.000000   0.035767   0.000001
  185  TE 7 YY    0.000001  -0.000000  -0.000000   0.035767   0.000001
  186  TE 7 ZZ    0.000001  -0.000000  -0.000000   0.035767   0.000001
  187  TE 7 XY   -0.000000   0.000000   0.000000  -0.000000  -0.000000
  188  TE 7 XZ   -0.000000   0.000000   0.000000  -0.000000  -0.000000
  189  TE 7 YZ   -0.000000   0.000000   0.000000  -0.000000  -0.000000
  190  TE 7  S    0.000029  -0.000011  -0.000011   0.004579   0.000021
  191  TE 7  X    0.000000   0.000000  -0.000000   0.000001   0.000000
  192  TE 7  Y   -0.000000   0.000000   0.000000   0.000001   0.000000
  193  TE 7  Z    0.000000  -0.000000   0.000000   0.000001   0.000000
  194  TE 7 XX   -0.000013   0.000005   0.000005  -0.002180  -0.000009
  195  TE 7 YY   -0.000013   0.000005   0.000005  -0.002180  -0.000009
  196  TE 7 ZZ   -0.000013   0.000005   0.000005  -0.002180  -0.000009
  197  TE 7 XY    0.000000  -0.000000  -0.000000   0.000000   0.000000
  198  TE 7 XZ    0.000000  -0.000000  -0.000000   0.000000   0.000000
  199  TE 7 YZ    0.000000  -0.000000  -0.000000   0.000000   0.000000
  200  TE 7  S    0.000002  -0.000000  -0.000000   0.000095   0.000003
  201  TE 7  X   -0.000002   0.000000   0.000000  -0.000007  -0.000002
  202  TE 7  Y    0.000001  -0.000000  -0.000000  -0.000007  -0.000002
  203  TE 7  Z   -0.000002   0.000000   0.000000  -0.000007  -0.000002
  204  TE 8  S    0.000001  -0.000000   0.996638   0.000002   0.000000
  205  TE 8  S    0.000000  -0.000000   0.010101  -0.000000   0.000000
  206  TE 8  X   -0.000000   0.000000  -0.000000   0.000000   0.000000
  207  TE 8  Y    0.000000   0.000000  -0.000000  -0.000000   0.000000
  208  TE 8  Z    0.000000  -0.000000  -0.000000   0.000000   0.000000
  209  TE 8  S   -0.000002   0.000001  -0.080297   0.000001  -0.000002
  210  TE 8  X    0.000000  -0.000000  -0.000000  -0.000000  -0.000000
  211  TE 8  Y   -0.000000  -0.000000  -0.000000   0.000000  -0.000000
  212  TE 8  Z   -0.000000   0.000000  -0.000000  -0.000000  -0.000000
  213  TE 8 XX    0.000001  -0.000000   0.035767  -0.000000   0.000001
  214  TE 8 YY    0.000001  -0.000000   0.035767  -0.000000   0.000001
  215  TE 8 ZZ    0.000001  -0.000000   0.035767  -0.000000   0.000001
  216  TE 8 XY   -0.000000   0.000000  -0.000000   0.000000  -0.000000
  217  TE 8 XZ   -0.000000   0.000000  -0.000000   0.000000  -0.000000
  218  TE 8 YZ   -0.000000   0.000000  -0.000000   0.000000  -0.000000
  219  TE 8  S    0.000029  -0.000011   0.004579  -0.000011   0.000021
  220  TE 8  X   -0.000000   0.000000   0.000001   0.000000   0.000000
  221  TE 8  Y    0.000000   0.000000   0.000001  -0.000000   0.000000
  222  TE 8  Z    0.000000  -0.000000   0.000001   0.000000   0.000000
  223  TE 8 XX   -0.000013   0.000005  -0.002180   0.000005  -0.000009
  224  TE 8 YY   -0.000013   0.000005  -0.002180   0.000005  -0.000009
  225  TE 8 ZZ   -0.000013   0.000005  -0.002180   0.000005  -0.000009
  226  TE 8 XY    0.000000  -0.000000   0.000000  -0.000000   0.000000
  227  TE 8 XZ    0.000000  -0.000000   0.000000  -0.000000   0.000000
  228  TE 8 YZ    0.000000  -0.000000   0.000000  -0.000000   0.000000
  229  TE 8  S    0.000002  -0.000000   0.000095  -0.000000   0.000003
  230  TE 8  X    0.000001  -0.000000  -0.000007  -0.000000  -0.000002
  231  TE 8  Y   -0.000002   0.000000  -0.000007   0.000000  -0.000002
  232  TE 8  Z   -0.000002   0.000000  -0.000007   0.000000  -0.000002

                      6          7          8          9         10
                 -962.9448  -962.9444  -962.8061  -170.3355  -170.2388
                     A          A          A          A          A   
    1  CD 1  S   -0.000005  -0.000005   0.995367   0.000001   0.000000
    2  CD 1  S    0.000001   0.000001   0.010984  -0.000006  -0.000001
    3  CD 1  X   -0.000000   0.000000   0.000000  -0.000006  -0.000001
    4  CD 1  Y    0.000000  -0.000000   0.000000  -0.000006  -0.000001
    5  CD 1  Z    0.000000   0.000000   0.000000  -0.000006   0.000000
    6  CD 1  S   -0.000004  -0.000004  -0.000006   0.000091   0.000016
    7  CD 1  X    0.000000  -0.000000   0.000000   0.000013   0.000001
    8  CD 1  Y   -0.000000   0.000000   0.000000   0.000013   0.000001
    9  CD 1  Z   -0.000000  -0.000000   0.000000   0.000013  -0.000001
   10  CD 1 XX    0.000009   0.000009  -0.001583  -0.000193  -0.000033
   11  CD 1 YY    0.000008   0.000009  -0.001583  -0.000193  -0.000033
   12  CD 1 ZZ    0.000008   0.000009  -0.001583  -0.000193  -0.000031
   13  CD 1 XY   -0.000000  -0.000000  -0.000001  -0.000075   0.000000
   14  CD 1 XZ   -0.000000   0.000000  -0.000001  -0.000075   0.000002
   15  CD 1 YZ    0.000000  -0.000000  -0.000001  -0.000075   0.000002
   16  CD 1  S   -0.000033  -0.000034   0.005520   0.000854   0.000128
   17  CD 1  X   -0.000000   0.000001  -0.000001  -0.000032  -0.000003
   18  CD 1  Y    0.000001  -0.000000  -0.000001  -0.000032  -0.000003
   19  CD 1  Z    0.000001   0.000001  -0.000001  -0.000032   0.000002
   20  CD 1 XX    0.000008   0.000008  -0.001127  -0.000236  -0.000031
   21  CD 1 YY    0.000008   0.000008  -0.001127  -0.000235  -0.000031
   22  CD 1 ZZ    0.000008   0.000008  -0.001127  -0.000235  -0.000034
   23  CD 1 XY    0.000000   0.000000   0.000002   0.000104  -0.000000
   24  CD 1 XZ    0.000000  -0.000000   0.000002   0.000104  -0.000003
   25  CD 1 YZ   -0.000000   0.000000   0.000002   0.000104  -0.000003
   26  CD 1  S   -0.000007  -0.000008   0.000172   0.000591   0.000021
   27  CD 1  X    0.000001  -0.000006   0.000014   0.000452   0.000019
   28  CD 1  Y   -0.000006   0.000001   0.000014   0.000452   0.000019
   29  CD 1  Z   -0.000006  -0.000006   0.000014   0.000452  -0.000022
   30  TE 2  S   -0.000000  -0.000000  -0.000000   0.426590  -0.000096
   31  TE 2  S    0.000000   0.000000   0.000000  -1.037019   0.000228
   32  TE 2  X   -0.000000   0.000000  -0.000000  -0.000011   0.000003
   33  TE 2  Y    0.000000  -0.000000  -0.000000  -0.000028   0.000003
   34  TE 2  Z    0.000000   0.000000  -0.000000  -0.000002   0.000001
   35  TE 2  S   -0.000000  -0.000000  -0.000002   2.022110  -0.000406
   36  TE 2  X    0.000000  -0.000000   0.000000  -0.000002  -0.000006
   37  TE 2  Y   -0.000000   0.000000   0.000000  -0.000002  -0.000006
   38  TE 2  Z   -0.000000  -0.000000   0.000000  -0.000001  -0.000002
   39  TE 2 XX   -0.000000  -0.000000   0.000001  -0.948981   0.000190
   40  TE 2 YY   -0.000000  -0.000000   0.000001  -0.948981   0.000190
   41  TE 2 ZZ   -0.000000  -0.000000   0.000001  -0.948981   0.000187
   42  TE 2 XY   -0.000000  -0.000000   0.000000   0.000000   0.000002
   43  TE 2 XZ   -0.000000   0.000000   0.000000   0.000001  -0.000000
   44  TE 2 YZ    0.000000  -0.000000   0.000000   0.000001  -0.000000
   45  TE 2  S    0.000032   0.000033   0.000055   0.512036  -0.001302
   46  TE 2  X   -0.000000   0.000001  -0.000000   0.000003   0.000016
   47  TE 2  Y    0.000001  -0.000000  -0.000000   0.000003   0.000016
   48  TE 2  Z    0.000001   0.000001  -0.000000   0.000003   0.000005
   49  TE 2 XX   -0.000016  -0.000016  -0.000026  -0.217871   0.000581
   50  TE 2 YY   -0.000016  -0.000016  -0.000026  -0.217871   0.000581
   51  TE 2 ZZ   -0.000016  -0.000016  -0.000026  -0.217871   0.000588
   52  TE 2 XY    0.000001   0.000001  -0.000001  -0.000000  -0.000006
   53  TE 2 XZ    0.000001  -0.000001  -0.000001  -0.000000   0.000001
   54  TE 2 YZ   -0.000001   0.000001  -0.000001  -0.000000   0.000001
   55  TE 2  S   -0.000024  -0.000024  -0.000022  -0.003969  -0.000098
   56  TE 2  X    0.000015  -0.000018   0.000015  -0.000019  -0.000095
   57  TE 2  Y   -0.000018   0.000015   0.000015  -0.000019  -0.000095
   58  TE 2  Z   -0.000018  -0.000018   0.000015  -0.000019  -0.000011
   59  CD 3  S    0.995364   0.002240   0.000004   0.000001  -0.000000
   60  CD 3  S    0.010982   0.000026   0.000001  -0.000007   0.000002
   61  CD 3  X   -0.000000   0.000000  -0.000000  -0.000006   0.000000
   62  CD 3  Y   -0.000000  -0.000000  -0.000000   0.000005   0.000000
   63  CD 3  Z   -0.000000   0.000000  -0.000000   0.000005  -0.000001
   64  CD 3  S    0.000002  -0.000006  -0.000004   0.000104  -0.000019
   65  CD 3  X    0.000001  -0.000000   0.000000   0.000014  -0.000001
   66  CD 3  Y    0.000000   0.000000   0.000000  -0.000012  -0.000001
   67  CD 3  Z    0.000000  -0.000000   0.000000  -0.000012   0.000001
   68  CD 3 XX   -0.001599   0.000008   0.000008  -0.000222   0.000039
   69  CD 3 YY   -0.001598   0.000008   0.000009  -0.000220   0.000039
   70  CD 3 ZZ   -0.001598   0.000008   0.000009  -0.000220   0.000039
   71  CD 3 XY   -0.000000  -0.000000   0.000000   0.000072   0.000003
   72  CD 3 XZ   -0.000000   0.000000   0.000000   0.000072   0.000001
   73  CD 3 YZ   -0.000003   0.000000   0.000000  -0.000080  -0.000001
   74  CD 3  S    0.005583  -0.000034  -0.000033   0.000967  -0.000153
   75  CD 3  X   -0.000003   0.000001  -0.000000  -0.000036   0.000003
   76  CD 3  Y    0.000000  -0.000001  -0.000001   0.000030   0.000001
   77  CD 3  Z    0.000000   0.000000  -0.000001   0.000030  -0.000003
   78  CD 3 XX   -0.001143   0.000009   0.000008  -0.000263   0.000039
   79  CD 3 YY   -0.001143   0.000009   0.000008  -0.000266   0.000039
   80  CD 3 ZZ   -0.001143   0.000009   0.000008  -0.000266   0.000038
   81  CD 3 XY    0.000000   0.000000  -0.000000  -0.000099  -0.000004
   82  CD 3 XZ    0.000000  -0.000000  -0.000000  -0.000099  -0.000001
   83  CD 3 YZ    0.000004  -0.000000  -0.000000   0.000110   0.000002
   84  CD 3  S    0.000194  -0.000010  -0.000007   0.000643  -0.000030
   85  CD 3  X    0.000030  -0.000008   0.000003   0.000504  -0.000019
   86  CD 3  Y   -0.000001   0.000006   0.000007  -0.000426  -0.000018
   87  CD 3  Z   -0.000001  -0.000003   0.000007  -0.000426   0.000020
   88  CD 4  S   -0.002240   0.995364   0.000004   0.000001  -0.000000
   89  CD 4  S   -0.000024   0.010982   0.000001  -0.000007   0.000002
   90  CD 4  X   -0.000000  -0.000000  -0.000000   0.000005   0.000000
   91  CD 4  Y    0.000000  -0.000000  -0.000000  -0.000006   0.000000
   92  CD 4  Z    0.000000  -0.000000  -0.000000   0.000005  -0.000001
   93  CD 4  S   -0.000006   0.000002  -0.000004   0.000104  -0.000019
   94  CD 4  X    0.000000   0.000000   0.000000  -0.000012  -0.000001
   95  CD 4  Y   -0.000000   0.000001   0.000000   0.000014  -0.000001
   96  CD 4  Z   -0.000000   0.000000   0.000000  -0.000012   0.000001
   97  CD 4 XX    0.000015  -0.001598   0.000009  -0.000220   0.000039
   98  CD 4 YY    0.000015  -0.001599   0.000008  -0.000222   0.000039
   99  CD 4 ZZ    0.000015  -0.001598   0.000009  -0.000220   0.000039
  100  CD 4 XY   -0.000000  -0.000000   0.000000   0.000072   0.000003
  101  CD 4 XZ    0.000000  -0.000003   0.000000  -0.000080  -0.000001
  102  CD 4 YZ    0.000000  -0.000000   0.000000   0.000072   0.000001
  103  CD 4  S   -0.000059   0.005583  -0.000033   0.000967  -0.000153
  104  CD 4  X   -0.000001   0.000000  -0.000001   0.000030   0.000001
  105  CD 4  Y    0.000001  -0.000003  -0.000000  -0.000036   0.000003
  106  CD 4  Z    0.000000   0.000000  -0.000001   0.000030  -0.000003
  107  CD 4 XX    0.000014  -0.001143   0.000008  -0.000266   0.000039
  108  CD 4 YY    0.000014  -0.001143   0.000008  -0.000263   0.000039
  109  CD 4 ZZ    0.000014  -0.001143   0.000008  -0.000266   0.000038
  110  CD 4 XY    0.000000   0.000000  -0.000000  -0.000099  -0.000004
  111  CD 4 XZ   -0.000000   0.000004  -0.000000   0.000110   0.000002
  112  CD 4 YZ   -0.000000   0.000000  -0.000000  -0.000099  -0.000001
  113  CD 4  S   -0.000011   0.000193  -0.000007   0.000643  -0.000030
  114  CD 4  X    0.000006  -0.000001   0.000007  -0.000426  -0.000018
  115  CD 4  Y   -0.000008   0.000030   0.000003   0.000504  -0.000019
  116  CD 4  Z   -0.000003  -0.000001   0.000007  -0.000426   0.000020
  117  CD 5  S    0.000074   0.000072   0.000004   0.000001   0.000001
  118  CD 5  S    0.000002   0.000002   0.000001  -0.000007  -0.000015
  119  CD 5  X   -0.000000   0.000000  -0.000000   0.000005  -0.000007
  120  CD 5  Y    0.000000  -0.000000  -0.000000   0.000005  -0.000007
  121  CD 5  Z    0.000000   0.000000  -0.000000  -0.000006  -0.000008
  122  CD 5  S   -0.000006  -0.000006  -0.000004   0.000104   0.000202
  123  CD 5  X    0.000000  -0.000000   0.000000  -0.000012   0.000015
  124  CD 5  Y   -0.000000   0.000000   0.000000  -0.000012   0.000015
  125  CD 5  Z   -0.000000  -0.000000   0.000000   0.000014   0.000019
  126  CD 5 XX    0.000012   0.000012   0.000009  -0.000220  -0.000421
  127  CD 5 YY    0.000012   0.000012   0.000009  -0.000220  -0.000421
  128  CD 5 ZZ    0.000012   0.000012   0.000008  -0.000222  -0.000423
  129  CD 5 XY    0.000000   0.000000   0.000000  -0.000080  -0.000075
  130  CD 5 XZ   -0.000000   0.000000   0.000000   0.000072  -0.000066
  131  CD 5 YZ    0.000000  -0.000000   0.000000   0.000072  -0.000066
  132  CD 5  S   -0.000046  -0.000046  -0.000033   0.000968   0.001760
  133  CD 5  X   -0.000001   0.000000  -0.000001   0.000030  -0.000038
  134  CD 5  Y    0.000000  -0.000001  -0.000001   0.000030  -0.000038
  135  CD 5  Z    0.000001   0.000001  -0.000000  -0.000036  -0.000047
  136  CD 5 XX    0.000012   0.000012   0.000008  -0.000266  -0.000464
  137  CD 5 YY    0.000012   0.000012   0.000008  -0.000266  -0.000464
  138  CD 5 ZZ    0.000012   0.000012   0.000008  -0.000263  -0.000462
  139  CD 5 XY   -0.000000  -0.000000  -0.000000   0.000110   0.000104
  140  CD 5 XZ    0.000000  -0.000000  -0.000000  -0.000099   0.000091
  141  CD 5 YZ   -0.000000   0.000000  -0.000000  -0.000099   0.000091
  142  CD 5  S   -0.000011  -0.000011  -0.000007   0.000643   0.000805
  143  CD 5  X    0.000006  -0.000003   0.000007  -0.000425   0.000477
  144  CD 5  Y   -0.000003   0.000006   0.000007  -0.000425   0.000477
  145  CD 5  Z   -0.000008  -0.000008   0.000003   0.000504   0.000577
  146  TE 6  S    0.000000   0.000000  -0.000000   0.000094   0.426597
  147  TE 6  S    0.000000   0.000000  -0.000000  -0.000234  -1.036974
  148  TE 6  X    0.000000   0.000000  -0.000000  -0.000003   0.000178
  149  TE 6  Y    0.000000   0.000000  -0.000000  -0.000003   0.000175
  150  TE 6  Z    0.000000   0.000000  -0.000000   0.000002   0.000127
  151  TE 6  S   -0.000002  -0.000002   0.000002   0.000499   2.021472
  152  TE 6  X   -0.000000  -0.000000   0.000000   0.000006   0.000027
  153  TE 6  Y   -0.000000  -0.000000   0.000000   0.000006   0.000027
  154  TE 6  Z   -0.000000  -0.000000   0.000000  -0.000003   0.000024
  155  TE 6 XX    0.000001   0.000001  -0.000001  -0.000235  -0.948656
  156  TE 6 YY    0.000001   0.000001  -0.000001  -0.000235  -0.948656
  157  TE 6 ZZ    0.000001   0.000001  -0.000001  -0.000237  -0.948663
  158  TE 6 XY   -0.000000  -0.000000   0.000000   0.000001  -0.000001
  159  TE 6 XZ   -0.000000  -0.000000   0.000000   0.000000   0.000004
  160  TE 6 YZ   -0.000000  -0.000000   0.000000   0.000000   0.000004
  161  TE 6  S    0.000021   0.000021  -0.000026  -0.001178   0.529267
  162  TE 6  X    0.000000   0.000000  -0.000000  -0.000016  -0.000051
  163  TE 6  Y    0.000000   0.000000  -0.000000  -0.000016  -0.000051
  164  TE 6  Z    0.000000   0.000000  -0.000000   0.000009  -0.000048
  165  TE 6 XX   -0.000009  -0.000009   0.000012   0.000531  -0.225615
  166  TE 6 YY   -0.000009  -0.000009   0.000012   0.000531  -0.225615
  167  TE 6 ZZ   -0.000009  -0.000009   0.000012   0.000538  -0.225613
  168  TE 6 XY    0.000000   0.000000  -0.000000  -0.000004  -0.000011
  169  TE 6 XZ    0.000000   0.000000  -0.000000  -0.000000  -0.000012
  170  TE 6 YZ    0.000000   0.000000  -0.000000  -0.000000  -0.000012
  171  TE 6  S    0.000003   0.000003  -0.000002  -0.000094  -0.002554
  172  TE 6  X   -0.000002  -0.000002   0.000001   0.000090   0.000315
  173  TE 6  Y   -0.000002  -0.000002   0.000001   0.000090   0.000315
  174  TE 6  Z   -0.000002  -0.000002   0.000002  -0.000039   0.000304
  175  TE 7  S    0.000000  -0.000000  -0.000000   0.000060  -0.000022
  176  TE 7  S    0.000000  -0.000000  -0.000000  -0.000149   0.000053
  177  TE 7  X    0.000000  -0.000000  -0.000000  -0.000003  -0.000000
  178  TE 7  Y    0.000000  -0.000000  -0.000000   0.000002  -0.000000
  179  TE 7  Z    0.000000  -0.000000  -0.000000  -0.000003   0.000000
  180  TE 7  S   -0.000002   0.000013   0.000002   0.000333  -0.000112
  181  TE 7  X   -0.000000   0.000000   0.000000   0.000006  -0.000000
  182  TE 7  Y   -0.000000   0.000000   0.000000  -0.000003   0.000001
  183  TE 7  Z   -0.000000   0.000000   0.000000   0.000006  -0.000001
  184  TE 7 XX    0.000001  -0.000007  -0.000001  -0.000158   0.000053
  185  TE 7 YY    0.000001  -0.000007  -0.000001  -0.000159   0.000053
  186  TE 7 ZZ    0.000001  -0.000007  -0.000001  -0.000158   0.000053
  187  TE 7 XY   -0.000000   0.000000   0.000000   0.000000  -0.000000
  188  TE 7 XZ   -0.000000   0.000000   0.000000   0.000001  -0.000000
  189  TE 7 YZ   -0.000000   0.000000   0.000000   0.000000  -0.000000
  190  TE 7  S    0.000021  -0.000132  -0.000026  -0.001221   0.000252
  191  TE 7  X    0.000000  -0.000001  -0.000000  -0.000016  -0.000000
  192  TE 7  Y    0.000000   0.000000  -0.000000   0.000009  -0.000002
  193  TE 7  Z    0.000000  -0.000001  -0.000000  -0.000016   0.000002
  194  TE 7 XX   -0.000009   0.000058   0.000012   0.000549  -0.000114
  195  TE 7 YY   -0.000009   0.000058   0.000012   0.000556  -0.000114
  196  TE 7 ZZ   -0.000009   0.000058   0.000012   0.000549  -0.000114
  197  TE 7 XY    0.000000  -0.000001  -0.000000  -0.000000   0.000000
  198  TE 7 XZ    0.000000  -0.000001  -0.000000  -0.000004   0.000000
  199  TE 7 YZ    0.000000  -0.000001  -0.000000  -0.000000   0.000000
  200  TE 7  S    0.000003  -0.000038  -0.000002  -0.000094   0.000015
  201  TE 7  X   -0.000002   0.000017   0.000001   0.000090  -0.000002
  202  TE 7  Y   -0.000002   0.000013   0.000002  -0.000039   0.000004
  203  TE 7  Z   -0.000002   0.000017   0.000001   0.000090  -0.000011
  204  TE 8  S   -0.000000   0.000000  -0.000000   0.000064  -0.000027
  205  TE 8  S   -0.000000   0.000000  -0.000000  -0.000161   0.000066
  206  TE 8  X   -0.000000   0.000000  -0.000000   0.000002  -0.000000
  207  TE 8  Y   -0.000000   0.000000  -0.000000  -0.000003  -0.000000
  208  TE 8  Z   -0.000000   0.000000  -0.000000  -0.000003   0.000000
  209  TE 8  S    0.000013  -0.000002   0.000002   0.000356  -0.000136
  210  TE 8  X    0.000000  -0.000000   0.000000  -0.000003   0.000001
  211  TE 8  Y    0.000000  -0.000000   0.000000   0.000006   0.000000
  212  TE 8  Z    0.000000  -0.000000   0.000000   0.000006  -0.000001
  213  TE 8 XX   -0.000007   0.000001  -0.000001  -0.000170   0.000064
  214  TE 8 YY   -0.000007   0.000001  -0.000001  -0.000168   0.000064
  215  TE 8 ZZ   -0.000007   0.000001  -0.000001  -0.000168   0.000064
  216  TE 8 XY    0.000000  -0.000000   0.000000   0.000000  -0.000000
  217  TE 8 XZ    0.000000  -0.000000   0.000000   0.000000  -0.000000
  218  TE 8 YZ    0.000000  -0.000000   0.000000   0.000001  -0.000000
  219  TE 8  S   -0.000132   0.000020  -0.000026  -0.001215   0.000246
  220  TE 8  X    0.000000   0.000000  -0.000000   0.000009  -0.000002
  221  TE 8  Y   -0.000001   0.000000  -0.000000  -0.000016  -0.000000
  222  TE 8  Z   -0.000001   0.000000  -0.000000  -0.000016   0.000002
  223  TE 8 XX    0.000058  -0.000009   0.000012   0.000553  -0.000111
  224  TE 8 YY    0.000058  -0.000009   0.000012   0.000547  -0.000112
  225  TE 8 ZZ    0.000058  -0.000009   0.000012   0.000547  -0.000111
  226  TE 8 XY   -0.000001   0.000000  -0.000000  -0.000000   0.000000
  227  TE 8 XZ   -0.000001   0.000000  -0.000000  -0.000000   0.000000
  228  TE 8 YZ   -0.000001   0.000000  -0.000000  -0.000004   0.000000
  229  TE 8  S   -0.000038   0.000003  -0.000002  -0.000094   0.000015
  230  TE 8  X    0.000013  -0.000002   0.000002  -0.000039   0.000004
  231  TE 8  Y    0.000017  -0.000002   0.000001   0.000090  -0.000002
  232  TE 8  Z    0.000017  -0.000002   0.000001   0.000090  -0.000011

                     11         12         13         14         15
                 -170.1939  -170.1829  -160.8415  -160.8415  -160.8415
                     A          A          A          A          A   
    1  CD 1  S    0.000000   0.000000  -0.000000   0.000000   0.000001
    2  CD 1  S   -0.000001  -0.000001   0.000000  -0.000000  -0.000002
    3  CD 1  X    0.000000  -0.000001   0.000001   0.000001   0.000001
    4  CD 1  Y   -0.000001   0.000000   0.000000  -0.000001   0.000002
    5  CD 1  Z   -0.000001  -0.000001  -0.000001   0.000000   0.000001
    6  CD 1  S    0.000016   0.000016   0.000003  -0.000001  -0.000020
    7  CD 1  X   -0.000001   0.000001  -0.000001  -0.000002  -0.000003
    8  CD 1  Y    0.000001  -0.000001  -0.000000   0.000002  -0.000003
    9  CD 1  Z    0.000001   0.000001   0.000003  -0.000001  -0.000003
   10  CD 1 XX   -0.000031  -0.000033   0.000003   0.000012   0.000039
   11  CD 1 YY   -0.000033  -0.000031  -0.000002  -0.000009   0.000040
   12  CD 1 ZZ   -0.000033  -0.000033  -0.000018   0.000005   0.000037
   13  CD 1 XY    0.000002   0.000002   0.000001   0.000001   0.000037
   14  CD 1 XZ    0.000002  -0.000000  -0.000007   0.000009   0.000036
   15  CD 1 YZ   -0.000000   0.000002  -0.000010  -0.000002   0.000036
   16  CD 1  S    0.000128   0.000128   0.000027  -0.000014  -0.000186
   17  CD 1  X    0.000002  -0.000003   0.000003   0.000005   0.000006
   18  CD 1  Y   -0.000003   0.000002   0.000001  -0.000005   0.000007
   19  CD 1  Z   -0.000003  -0.000003  -0.000006   0.000002   0.000005
   20  CD 1 XX   -0.000034  -0.000031  -0.000019  -0.000010   0.000049
   21  CD 1 YY   -0.000031  -0.000034  -0.000013   0.000021   0.000048
   22  CD 1 ZZ   -0.000031  -0.000031   0.000010  -0.000000   0.000053
   23  CD 1 XY   -0.000003  -0.000003  -0.000001  -0.000002  -0.000053
   24  CD 1 XZ   -0.000003  -0.000000   0.000010  -0.000012  -0.000050
   25  CD 1 YZ    0.000000  -0.000003   0.000014   0.000003  -0.000051
   26  CD 1  S    0.000021   0.000021   0.000040  -0.000020  -0.000270
   27  CD 1  X   -0.000022   0.000019  -0.000012  -0.000058  -0.000196
   28  CD 1  Y    0.000019  -0.000022   0.000011   0.000043  -0.000200
   29  CD 1  Z    0.000019   0.000019   0.000086  -0.000026  -0.000184
   30  TE 2  S   -0.000065  -0.000061  -0.000006   0.000007   0.000009
   31  TE 2  S    0.000155   0.000144   0.000016  -0.000018  -0.000024
   32  TE 2  X    0.000001   0.000003  -0.631930  -0.565285   0.534603
   33  TE 2  Y    0.000003   0.000001  -0.326363   0.817790   0.478946
   34  TE 2  Z    0.000003   0.000003   0.706282  -0.127886   0.699639
   35  TE 2  S   -0.000263  -0.000241  -0.000032   0.000035   0.000051
   36  TE 2  X   -0.000002  -0.000006   0.003203   0.002865  -0.002711
   37  TE 2  Y   -0.000006  -0.000002   0.001654  -0.004145  -0.002429
   38  TE 2  Z   -0.000006  -0.000006  -0.003580   0.000648  -0.003548
   39  TE 2 XX    0.000120   0.000112   0.000015  -0.000017  -0.000024
   40  TE 2 YY    0.000122   0.000110   0.000015  -0.000015  -0.000024
   41  TE 2 ZZ    0.000122   0.000112   0.000015  -0.000017  -0.000025
   42  TE 2 XY   -0.000000  -0.000000  -0.000003   0.000000  -0.000001
   43  TE 2 XZ   -0.000000   0.000002   0.000001  -0.000002  -0.000001
   44  TE 2 YZ    0.000002  -0.000000   0.000002   0.000001  -0.000000
   45  TE 2  S   -0.001266  -0.001261   0.000020  -0.000007  -0.000159
   46  TE 2  X    0.000005   0.000016  -0.002748  -0.002458   0.002326
   47  TE 2  Y    0.000016   0.000005  -0.001419   0.003556   0.002084
   48  TE 2  Z    0.000016   0.000016   0.003071  -0.000556   0.003043
   49  TE 2 XX    0.000572   0.000563  -0.000009   0.000004   0.000072
   50  TE 2 YY    0.000565   0.000570  -0.000009   0.000003   0.000072
   51  TE 2 ZZ    0.000565   0.000563  -0.000010   0.000003   0.000072
   52  TE 2 XY    0.000001   0.000001   0.000007  -0.000001   0.000006
   53  TE 2 XZ    0.000001  -0.000006  -0.000003   0.000008   0.000004
   54  TE 2 YZ   -0.000006   0.000001  -0.000006  -0.000006   0.000005
   55  TE 2  S   -0.000099  -0.000099   0.000002  -0.000001  -0.000014
   56  TE 2  X   -0.000011  -0.000095   0.000792   0.000707  -0.000675
   57  TE 2  Y   -0.000095  -0.000011   0.000409  -0.001024  -0.000605
   58  TE 2  Z   -0.000095  -0.000095  -0.000883   0.000160  -0.000881
   59  CD 3  S    0.000001  -0.000000  -0.000001  -0.000001  -0.000001
   60  CD 3  S   -0.000015   0.000002   0.000002   0.000003   0.000002
   61  CD 3  X   -0.000008   0.000000  -0.000001  -0.000001  -0.000002
   62  CD 3  Y   -0.000007  -0.000001   0.000002   0.000000  -0.000000
   63  CD 3  Z   -0.000007   0.000000   0.000000   0.000002  -0.000000
   64  CD 3  S    0.000202  -0.000019   0.000015   0.000021   0.000018
   65  CD 3  X    0.000019  -0.000001   0.000001   0.000002   0.000004
   66  CD 3  Y    0.000015   0.000001  -0.000004  -0.000001   0.000000
   67  CD 3  Z    0.000015  -0.000001  -0.000001  -0.000003   0.000001
   68  CD 3 XX   -0.000423   0.000038  -0.000025  -0.000039  -0.000047
   69  CD 3 YY   -0.000421   0.000039  -0.000040  -0.000034  -0.000031
   70  CD 3 ZZ   -0.000421   0.000038  -0.000024  -0.000049  -0.000028
   71  CD 3 XY   -0.000066   0.000001   0.000024   0.000021   0.000015
   72  CD 3 XZ   -0.000066   0.000003   0.000016   0.000029   0.000014
   73  CD 3 YZ   -0.000075  -0.000001  -0.000024  -0.000029  -0.000010
   74  CD 3  S    0.001760  -0.000152   0.000136   0.000185   0.000154
   75  CD 3  X   -0.000047   0.000003  -0.000002  -0.000005  -0.000010
   76  CD 3  Y   -0.000038  -0.000003   0.000008   0.000001  -0.000001
   77  CD 3  Z   -0.000038   0.000001   0.000001   0.000008  -0.000003
   78  CD 3 XX   -0.000462   0.000039  -0.000042  -0.000052  -0.000024
   79  CD 3 YY   -0.000464   0.000038  -0.000022  -0.000058  -0.000046
   80  CD 3 ZZ   -0.000464   0.000039  -0.000044  -0.000037  -0.000051
   81  CD 3 XY    0.000091  -0.000001  -0.000034  -0.000030  -0.000022
   82  CD 3 XZ    0.000091  -0.000004  -0.000022  -0.000041  -0.000019
   83  CD 3 YZ    0.000104   0.000002   0.000034   0.000040   0.000015
   84  CD 3  S    0.000805  -0.000030   0.000166   0.000213   0.000134
   85  CD 3  X    0.000577  -0.000019   0.000100   0.000144   0.000152
   86  CD 3  Y    0.000477   0.000020  -0.000163  -0.000108  -0.000034
   87  CD 3  Z    0.000477  -0.000017  -0.000087  -0.000177  -0.000018
   88  CD 4  S   -0.000000   0.000001  -0.000000   0.000002  -0.000001
   89  CD 4  S    0.000002  -0.000015   0.000001  -0.000003   0.000002
   90  CD 4  X   -0.000001  -0.000007   0.000001  -0.000001  -0.000000
   91  CD 4  Y    0.000000  -0.000008  -0.000000   0.000001  -0.000002
   92  CD 4  Z    0.000000  -0.000007  -0.000000  -0.000002  -0.000000
   93  CD 4  S   -0.000019   0.000202   0.000005  -0.000024   0.000020
   94  CD 4  X    0.000001   0.000015  -0.000003   0.000002   0.000000
   95  CD 4  Y   -0.000001   0.000019   0.000000  -0.000002   0.000004
   96  CD 4  Z   -0.000001   0.000015   0.000001   0.000004   0.000001
   97  CD 4 XX    0.000039  -0.000421  -0.000022   0.000045  -0.000034
   98  CD 4 YY    0.000039  -0.000423  -0.000007   0.000042  -0.000051
   99  CD 4 ZZ    0.000039  -0.000421  -0.000001   0.000052  -0.000032
  100  CD 4 XY    0.000001  -0.000066   0.000013  -0.000028   0.000017
  101  CD 4 XZ   -0.000001  -0.000075  -0.000010   0.000035  -0.000013
  102  CD 4 YZ    0.000003  -0.000066   0.000002  -0.000032   0.000016
  103  CD 4  S   -0.000153   0.001760   0.000048  -0.000212   0.000170
  104  CD 4  X   -0.000003  -0.000038   0.000007  -0.000005  -0.000001
  105  CD 4  Y    0.000003  -0.000047  -0.000000   0.000005  -0.000010
  106  CD 4  Z    0.000001  -0.000038  -0.000002  -0.000008  -0.000002
  107  CD 4 XX    0.000039  -0.000464   0.000003   0.000058  -0.000051
  108  CD 4 YY    0.000039  -0.000462  -0.000017   0.000063  -0.000028
  109  CD 4 ZZ    0.000039  -0.000464  -0.000025   0.000048  -0.000054
  110  CD 4 XY   -0.000001   0.000091  -0.000018   0.000040  -0.000024
  111  CD 4 XZ    0.000001   0.000104   0.000014  -0.000049   0.000018
  112  CD 4 YZ   -0.000004   0.000091  -0.000003   0.000045  -0.000023
  113  CD 4  S   -0.000031   0.000805   0.000064  -0.000252   0.000153
  114  CD 4  X    0.000020   0.000477  -0.000103   0.000163  -0.000045
  115  CD 4  Y   -0.000019   0.000577   0.000032  -0.000161   0.000164
  116  CD 4  Z   -0.000018   0.000477  -0.000005   0.000195  -0.000033
  117  CD 5  S   -0.000000  -0.000000   0.000002  -0.000000  -0.000001
  118  CD 5  S    0.000002   0.000002  -0.000003   0.000001   0.000002
  119  CD 5  X   -0.000001   0.000000  -0.000001   0.000001  -0.000001
  120  CD 5  Y    0.000000  -0.000001  -0.000002  -0.000001  -0.000001
  121  CD 5  Z    0.000000   0.000000   0.000002  -0.000000  -0.000002
  122  CD 5  S   -0.000019  -0.000019  -0.000028   0.000007   0.000013
  123  CD 5  X    0.000001  -0.000001   0.000002  -0.000002   0.000001
  124  CD 5  Y   -0.000001   0.000001   0.000003   0.000001   0.000001
  125  CD 5  Z   -0.000001  -0.000001  -0.000003   0.000001   0.000003
  126  CD 5 XX    0.000039   0.000039   0.000053  -0.000024  -0.000018
  127  CD 5 YY    0.000039   0.000039   0.000058  -0.000002  -0.000019
  128  CD 5 ZZ    0.000039   0.000039   0.000053  -0.000013  -0.000038
  129  CD 5 XY   -0.000001  -0.000001   0.000038  -0.000008  -0.000003
  130  CD 5 XZ    0.000001   0.000003  -0.000032   0.000013   0.000008
  131  CD 5 YZ    0.000003   0.000001  -0.000035   0.000002   0.000008
  132  CD 5  S   -0.000153  -0.000153  -0.000248   0.000059   0.000107
  133  CD 5  X   -0.000003   0.000001  -0.000005   0.000006  -0.000003
  134  CD 5  Y    0.000001  -0.000003  -0.000007  -0.000004  -0.000003
  135  CD 5  Z    0.000003   0.000003   0.000007  -0.000002  -0.000008
  136  CD 5 XX    0.000038   0.000039   0.000068  -0.000001  -0.000037
  137  CD 5 YY    0.000039   0.000038   0.000061  -0.000030  -0.000036
  138  CD 5 ZZ    0.000039   0.000039   0.000068  -0.000015  -0.000010
  139  CD 5 XY    0.000002   0.000002  -0.000053   0.000012   0.000004
  140  CD 5 XZ   -0.000001  -0.000004   0.000045  -0.000019  -0.000011
  141  CD 5 YZ   -0.000004  -0.000001   0.000049  -0.000003  -0.000011
  142  CD 5  S   -0.000030  -0.000030  -0.000284   0.000066   0.000078
  143  CD 5  X    0.000020  -0.000018   0.000175  -0.000091   0.000014
  144  CD 5  Y   -0.000018   0.000020   0.000198   0.000010   0.000010
  145  CD 5  Z   -0.000019  -0.000019  -0.000195   0.000048   0.000116
  146  TE 6  S    0.000027   0.000022   0.000000  -0.000000  -0.000001
  147  TE 6  S   -0.000064  -0.000052   0.000000  -0.000000  -0.000000
  148  TE 6  X    0.000000   0.000000   0.000025  -0.000016  -0.000023
  149  TE 6  Y    0.000000   0.000000   0.000029   0.000002  -0.000024
  150  TE 6  Z   -0.000000  -0.000000  -0.000017   0.000003  -0.000014
  151  TE 6  S    0.000116   0.000092  -0.000011   0.000003   0.000017
  152  TE 6  X   -0.000001   0.000000  -0.000002   0.000001   0.000002
  153  TE 6  Y    0.000000  -0.000001  -0.000002  -0.000000   0.000002
  154  TE 6  Z    0.000001   0.000001   0.000001  -0.000000   0.000001
  155  TE 6 XX   -0.000054  -0.000043   0.000006  -0.000001  -0.000009
[...]
    7             0.437761   0.007792   0.032829   0.062631   0.016606
    8             0.070186   0.010542   0.042497   0.036355   0.047546

                    176        177        178        179        180

                  2.000000   2.000000   2.000000   2.000000   2.000000

    1             0.056927   0.001099   0.046332   0.089664   0.014818
    2             0.010039   0.005908   0.064433   0.014783   0.048732
    3             0.017345   0.038935   0.496166   1.743501   0.869543
    4             0.019975   0.015665   0.308731   0.108546   0.787461
    5             1.871444   1.909000   0.789208   0.021926   0.042885
    6             0.021213   0.013133   0.084856   0.000205   0.000132
    7             0.001206   0.003611   0.081598   0.003654   0.141908
    8             0.001851   0.012649   0.128677   0.017720   0.094520

                    181        182        183        184        185

                  2.000000   2.000000   2.000000   2.000000   2.000000

    1             0.008997   0.014857   0.002227   0.346814   0.792925
    2             0.007531   0.002435   0.001459   0.077445   0.389014
    3             1.682357   0.247895   0.014768   0.539088   0.237907
    4             0.219494   1.668748   1.948088   0.612598   0.130215
    5             0.035865   0.015820   0.023428   0.392056   0.425237
    6             0.000698   0.000361   0.000355   0.003220   0.012212
    7             0.025705   0.035210   0.009185   0.019411   0.004452
    8             0.019353   0.014675   0.000490   0.009367   0.008037

                    186        187        188        189        190

                  2.000000   2.000000   2.000000   2.000000   2.000000

    1             0.956485   0.999494   1.045565   0.914952   1.976111
    2             0.339403   0.398985   0.349968   0.430540   0.004435
    3             0.270500   0.050016   0.416706   0.077964   0.002857
    4             0.368074   0.048665   0.106954   0.408856   0.004366
    5             0.039085   0.436476   0.044081   0.082733   0.005538
    6             0.003879   0.033787   0.020512   0.046609   0.003866
    7             0.014328   0.014425   0.009264   0.017313   0.000909
    8             0.008246   0.018151   0.006949   0.021033   0.001918

                    191        192        193        194        195

                  2.000000   2.000000   2.000000   2.000000   2.000000

    1             1.992045   0.089648   0.038640   0.047304   0.004734
    2             0.002142   0.054582   0.024193   0.026998   0.019550
    3             0.003020   0.023616   1.011417   0.042407   0.016477
    4             0.001442   0.018085   0.059656   1.020242   0.026466
    5             0.000164   0.970052   0.009510   0.012886   0.206842
    6             0.000014   0.825772   0.016641   0.026893   1.662192
    7             0.001046   0.007795   0.042081   0.789125   0.034834
    8             0.000127   0.010450   0.797862   0.034145   0.028905

                    196        197        198        199        200

                  2.000000   2.000000   2.000000   2.000000   2.000000

    1             0.004550   0.060003   0.047331   0.002856   1.296222
    2             0.015446   0.041999   0.007038   0.007769   0.016255
    3             0.261356   0.042166   0.110796   0.111832   0.057386
    4             0.040128   0.168672   0.082171   0.270409   0.055515
    5             0.017592   0.058532   0.181379   0.030785   0.082805
    6             0.032726   0.246844   0.621681   0.083118   0.050013
    7             0.147889   1.149652   0.453281   1.068412   0.149975
    8             1.480313   0.232132   0.496323   0.424820   0.291830

               ----- POPULATIONS IN EACH AO -----
                             MULLIKEN      LOWDIN
              1  CD 1  S      1.99994     1.99851
              2  CD 1  S      1.93875     1.97758
              3  CD 1  X      2.00002     1.99997
              4  CD 1  Y      2.00002     1.99997
              5  CD 1  Z      2.00002     1.99996
              6  CD 1  S      1.92791     1.87116
              7  CD 1  X      2.00009     1.99957
              8  CD 1  Y      2.00009     1.99955
              9  CD 1  Z      2.00010     1.99954
             10  CD 1 XX      1.73805     1.72188
             11  CD 1 YY      1.73803     1.72190
             12  CD 1 ZZ      1.73876     1.72196
             13  CD 1 XY      2.06912     1.99999
             14  CD 1 XZ      2.08225     1.99999
             15  CD 1 YZ      2.08298     1.99998
             16  CD 1  S      1.24503     0.68935
             17  CD 1  X      2.00122     1.99268
             18  CD 1  Y      2.00131     1.99242
             19  CD 1  Z      2.00150     1.99213
             20  CD 1 XX      1.42701     1.59076
             21  CD 1 YY      1.42970     1.59234
             22  CD 1 ZZ      1.43625     1.59566
             23  CD 1 XY      1.72969     1.79901
             24  CD 1 XZ      1.67693     1.75934
             25  CD 1 YZ      1.67398     1.75711
             26  CD 1  S      1.33189     1.46934
             27  CD 1  X      0.30412     0.34911
             28  CD 1  Y      0.23122     0.27907
             29  CD 1  Z      0.13657     0.19003
             30  TE 2  S      2.00151     1.99899
             31  TE 2  S      1.97688     1.99168
             32  TE 2  X      2.00005     1.99986
             33  TE 2  Y      2.00005     1.99986
             34  TE 2  Z      2.00005     1.99986
             35  TE 2  S      2.10665     0.81089
             36  TE 2  X      1.99891     1.99835
             37  TE 2  Y      1.99892     1.99836
             38  TE 2  Z      1.99892     1.99836
             39  TE 2 XX      1.30227     1.73180
             40  TE 2 YY      1.30227     1.73180
             41  TE 2 ZZ      1.30227     1.73180
             42  TE 2 XY      1.99984     1.99975
             43  TE 2 XZ      1.99985     1.99976
             44  TE 2 YZ      1.99985     1.99976
             45  TE 2  S     -0.28473     0.73264
             46  TE 2  X      1.99825     1.98679
             47  TE 2  Y      1.99826     1.98682
             48  TE 2  Z      1.99825     1.98673
             49  TE 2 XX      2.09583     1.75563
             50  TE 2 YY      2.09575     1.75563
             51  TE 2 ZZ      2.09576     1.75567
             52  TE 2 XY      1.99616     1.99637
             53  TE 2 XZ      1.99629     1.99650
             54  TE 2 YZ      1.99638     1.99660
             55  TE 2  S      1.72322     1.46335
             56  TE 2  X      1.32584     1.29054
             57  TE 2  Y      1.33234     1.29556
             58  TE 2  Z      1.33213     1.29410
             59  CD 3  S      1.99994     1.99851
             60  CD 3  S      1.93858     1.97758
             61  CD 3  X      2.00002     1.99997
             62  CD 3  Y      2.00002     1.99997
             63  CD 3  Z      2.00002     1.99997
             64  CD 3  S      1.92764     1.87119
             65  CD 3  X      2.00009     1.99961
             66  CD 3  Y      2.00008     1.99964
             67  CD 3  Z      2.00008     1.99964
             68  CD 3 XX      1.74000     1.72163
             69  CD 3 YY      1.74607     1.72259
             70  CD 3 ZZ      1.74542     1.72258
             71  CD 3 XY      2.02303     1.99999
             72  CD 3 XZ      2.02407     1.99999
             73  CD 3 YZ      2.27899     1.99995
             74  CD 3  S      1.25813     0.68867
             75  CD 3  X      2.00177     1.99369
             76  CD 3  Y      2.00152     1.99430
             77  CD 3  Z      2.00152     1.99430
             78  CD 3 XX      1.26529     1.49966
             79  CD 3 YY      1.47276     1.61547
             80  CD 3 ZZ      1.47101     1.61490
             81  CD 3 XY      1.91721     1.94031
             82  CD 3 XZ      1.91303     1.93722
             83  CD 3 YZ      0.90039     1.17680
             84  CD 3  S      1.14827     1.27954
             85  CD 3  X      0.39557     0.46753
             86  CD 3  Y      0.53899     0.58894
             87  CD 3  Z      0.53786     0.58757
             88  CD 4  S      1.99994     1.99851
             89  CD 4  S      1.93859     1.97759
             90  CD 4  X      2.00002     1.99997
             91  CD 4  Y      2.00002     1.99997
             92  CD 4  Z      2.00002     1.99997
             93  CD 4  S      1.92765     1.87127
             94  CD 4  X      2.00008     1.99965
             95  CD 4  Y      2.00009     1.99961
             96  CD 4  Z      2.00008     1.99965
             97  CD 4 XX      1.74458     1.72269
             98  CD 4 YY      1.73763     1.72172
             99  CD 4 ZZ      1.74660     1.72273
            100  CD 4 XY      2.02173     1.99999
            101  CD 4 XZ      2.28862     1.99995
            102  CD 4 YZ      2.02459     1.99999
            103  CD 4  S      1.25675     0.68872
            104  CD 4  X      2.00151     1.99444
            105  CD 4  Y      2.00177     1.99371
            106  CD 4  Z      2.00153     1.99436
            107  CD 4 XX      1.46986     1.61490
            108  CD 4 YY      1.27457     1.50639
            109  CD 4 ZZ      1.47940     1.61900
            110  CD 4 XY      1.92225     1.94402
            111  CD 4 XZ      0.86170     1.14762
            112  CD 4 YZ      1.91099     1.93565
            113  CD 4  S      1.14901     1.28008
            114  CD 4  X      0.56600     0.61557
            115  CD 4  Y      0.39864     0.47291
            116  CD 4  Z      0.55484     0.60323
            117  CD 5  S      1.99994     1.99850
            118  CD 5  S      1.93857     1.97756
            119  CD 5  X      2.00002     1.99997
            120  CD 5  Y      2.00002     1.99997
            121  CD 5  Z      2.00002     1.99997
            122  CD 5  S      1.92765     1.87096
            123  CD 5  X      2.00008     1.99964
            124  CD 5  Y      2.00008     1.99963
            125  CD 5  Z      2.00009     1.99962
            126  CD 5 XX      1.74457     1.72223
            127  CD 5 YY      1.74494     1.72223
            128  CD 5 ZZ      1.73700     1.72127
            129  CD 5 XY      2.27667     1.99995
            130  CD 5 XZ      2.02523     1.99999
            131  CD 5 YZ      2.02512     1.99999
            132  CD 5  S      1.26264     0.68833
            133  CD 5  X      2.00155     1.99415
            134  CD 5  Y      2.00155     1.99413
            135  CD 5  Z      2.00172     1.99395
            136  CD 5 XX      1.47134     1.61659
            137  CD 5 YY      1.47228     1.61687
            138  CD 5 ZZ      1.27253     1.50665
            139  CD 5 XY      0.91074     1.18480
            140  CD 5 XZ      1.90890     1.93408
            141  CD 5 YZ      1.90933     1.93439
            142  CD 5  S      1.13239     1.26476
            143  CD 5  X      0.49719     0.54952
            144  CD 5  Y      0.49550     0.54776
            145  CD 5  Z      0.45416     0.52377
            146  TE 6  S      2.00151     1.99900
            147  TE 6  S      1.97682     1.99179
            148  TE 6  X      2.00003     1.99990
            149  TE 6  Y      2.00003     1.99990
            150  TE 6  Z      2.00006     1.99981
            151  TE 6  S      2.10706     0.81117
            152  TE 6  X      1.99931     1.99883
            153  TE 6  Y      1.99931     1.99884
            154  TE 6  Z      1.99873     1.99772
            155  TE 6 XX      1.30228     1.73196
            156  TE 6 YY      1.30228     1.73196
            157  TE 6 ZZ      1.30228     1.73196
            158  TE 6 XY      1.99996     1.99994
            159  TE 6 XZ      1.99996     1.99994
            160  TE 6 YZ      1.99996     1.99994
            161  TE 6  S     -0.16064     0.73361
            162  TE 6  X      1.99840     1.98872
            163  TE 6  Y      1.99843     1.98887
            164  TE 6  Z      1.99653     1.97618
            165  TE 6 XX      2.05699     1.75589
            166  TE 6 YY      2.05709     1.75589
            167  TE 6 ZZ      2.04813     1.75573
            168  TE 6 XY      1.99906     1.99913
            169  TE 6 XZ      1.99913     1.99919
            170  TE 6 YZ      1.99913     1.99919
            171  TE 6  S      1.92798     1.85631
            172  TE 6  X      1.46702     1.47821
            173  TE 6  Y      1.47256     1.48346
            174  TE 6  Z      0.94411     0.97260
            175  TE 7  S      2.00151     1.99900
            176  TE 7  S      1.97682     1.99179
            177  TE 7  X      2.00004     1.99988
            178  TE 7  Y      2.00004     1.99987
            179  TE 7  Z      2.00003     1.99989
            180  TE 7  S      2.10705     0.81117
            181  TE 7  X      1.99915     1.99854
            182  TE 7  Y      1.99911     1.99845
            183  TE 7  Z      1.99924     1.99870
            184  TE 7 XX      1.30229     1.73196
            185  TE 7 YY      1.30228     1.73196
            186  TE 7 ZZ      1.30228     1.73196
            187  TE 7 XY      1.99996     1.99994
            188  TE 7 XZ      1.99996     1.99994
            189  TE 7 YZ      1.99996     1.99994
            190  TE 7  S     -0.16132     0.73359
            191  TE 7  X      1.99790     1.98554
            192  TE 7  Y      1.99768     1.98435
            193  TE 7  Z      1.99817     1.98734
            194  TE 7 XX      2.05450     1.75584
            195  TE 7 YY      2.05280     1.75582
            196  TE 7 ZZ      2.05550     1.75586
            197  TE 7 XY      1.99913     1.99919
            198  TE 7 XZ      1.99901     1.99908
            199  TE 7 YZ      1.99913     1.99919
            200  TE 7  S      1.92524     1.85563
            201  TE 7  X      1.32703     1.34432
            202  TE 7  Y      1.29292     1.31794
            203  TE 7  Z      1.40604     1.42113
            204  TE 8  S      2.00151     1.99900
            205  TE 8  S      1.97682     1.99179
            206  TE 8  X      2.00006     1.99982
            207  TE 8  Y      2.00003     1.99991
            208  TE 8  Z      2.00003     1.99991
            209  TE 8  S      2.10705     0.81116
            210  TE 8  X      1.99877     1.99781
            211  TE 8  Y      1.99938     1.99896
            212  TE 8  Z      1.99932     1.99886
            213  TE 8 XX      1.30228     1.73196
            214  TE 8 YY      1.30228     1.73196
            215  TE 8 ZZ      1.30228     1.73196
            216  TE 8 XY      1.99996     1.99994
            217  TE 8 XZ      1.99996     1.99994
            218  TE 8 YZ      1.99996     1.99994
            219  TE 8  S     -0.16119     0.73360
            220  TE 8  X      1.99660     1.97713
            221  TE 8  Y      1.99862     1.99030
            222  TE 8  Z      1.99845     1.98910
            223  TE 8 XX      2.04827     1.75572
            224  TE 8 YY      2.05766     1.75590
            225  TE 8 ZZ      2.05674     1.75588
            226  TE 8 XY      1.99913     1.99919
            227  TE 8 XZ      1.99912     1.99918
            228  TE 8 YZ      1.99903     1.99910
            229  TE 8  S      1.92533     1.85534
            230  TE 8  X      0.98591     1.01817
            231  TE 8  Y      1.53107     1.54219
            232  TE 8  Z      1.47979     1.49237

          ----- MULLIKEN ATOMIC OVERLAP POPULATIONS -----
          (OFF-DIAGONAL ELEMENTS NEED TO BE MULTIPLIED BY 2)

             1           2           3           4           5

    1   47.8857383
    2    0.0689375  51.3237852
    3   -0.0013366   0.0882409  47.9043199
    4   -0.0037755   0.0849404  -0.0080064  47.9369369
    5   -0.0070765   0.1295345  -0.0062948  -0.0071501  47.8468805
    6   -0.0000200  -0.0016781   0.0014190   0.0004299   0.2553469
    7    0.0000161  -0.0026391   0.0002301   0.2756881  -0.0001424
    8    0.0000514  -0.0031069   0.2688102   0.0000031   0.0007213

             6           7           8

    6   51.5330313
    7    0.0010225  51.6585047
    8    0.0039589   0.0007501  51.6330541

          TOTAL MULLIKEN AND LOWDIN ATOMIC POPULATIONS
       ATOM         MULL.POP.    CHARGE          LOW.POP.     CHARGE
    1 CD           47.942535    0.057465        48.059841   -0.059841
    2 TE           51.688014    0.311986        51.283785    0.716215
    3 CD           48.247382   -0.247382        48.391693   -0.391693
    4 CD           48.279066   -0.279066        48.423866   -0.423866
    5 CD           48.211819   -0.211819        48.361218   -0.361218
    6 TE           51.793510    0.206490        51.735676    0.264324
    7 TE           51.933430    0.066570        51.887831    0.112169
    8 TE           51.904242    0.095758        51.856091    0.143909

          -------------------------------
          BOND ORDER AND VALENCE ANALYSIS     BOND ORDER THRESHOLD=0.050
          -------------------------------

                   BOND                       BOND                       BOND
  ATOM PAIR DIST  ORDER      ATOM PAIR DIST  ORDER      ATOM PAIR DIST  ORDER
    1   2  2.806  0.741        1   3  4.582  0.078        1   4  4.582  0.084
    1   5  4.582  0.191        1   6  7.061  0.221        1   7  7.061  0.147
    1   8  7.061  0.194        2   3  2.806  0.757        2   4  2.806  0.740
    2   5  2.806  0.840        3   6  5.373  0.055        3   8  2.806  1.761
    4   7  2.806  1.834        5   6  2.806  1.681        6   7  4.582  0.142
    6   8  4.582  0.207        7   8  4.582  0.083

                       TOTAL       BONDED        FREE
      ATOM            VALENCE     VALENCE     VALENCE
    1 CD                1.656       1.656      -0.000
    2 TE                3.169       3.169       0.000
    3 CD                2.764       2.764      -0.000
    4 CD                2.796       2.796      -0.000
    5 CD                2.854       2.854      -0.000
    6 TE                2.367       2.367       0.000
    7 TE                2.320       2.320       0.000
    8 TE                2.339       2.339      -0.000

          ---------------------
          ELECTROSTATIC MOMENTS
          ---------------------

 POINT   1           X           Y           Z (BOHR)    CHARGE
                 4.692504    4.692504    4.692504       -0.00 (A.U.)
         DX          DY          DZ         /D/  (DEBYE)
    -1.618491   -0.819381   -3.892549    4.294512
 ...... END OF PROPERTY EVALUATION ......
 STEP CPU TIME =     0.15 TOTAL CPU TIME =         21.9 (      0.4 MIN)
 TOTAL WALL CLOCK TIME=         21.9 SECONDS, CPU UTILIZATION IS   100.00%
                   726152  WORDS OF DYNAMIC MEMORY USED
 EXECUTION OF GAMESS TERMINATED NORMALLY Sun Nov 12 23:28:24 2023
 DDI: 263640 bytes (0.3 MB / 0 MWords) used by master data server.

 ----------------------------------------
 CPU timing information for all processes
 ========================================
 0: 17.890625 + 3.578125 = 21.468750
 1: 0.000000 + 0.015625 = 0.015625
 ----------------------------------------
           Disk usage (in bytes)       
 ========================================
11/12/2023  11:27 PM               573 CdTeBY3.F05
11/12/2023  11:28 PM       302,606,896 CdTeBY3.F08
11/12/2023  11:28 PM        49,152,000 CdTeBY3.F10
11/12/2023  11:27 PM            17,232 CdTeBY3.GMS.ENV
11/12/2023  11:28 PM               121 CdTeBY3.processes.mpd
 ----------------------------------------
            Local date and time          
 ========================================
Sun 11/12/2023 - 23:28:30.92                          
